TITLE="2RS_E_WD175.dat"
VARIABLES= "Density" "Radius" "Height" "0.32" "0.5639" "0.6027" "0.6617" "0.7242" "0.7653" "0.8108" "0.8348" "1.1732" "1.3325" 
ZONE T="3D Data" I=8 J=15 K=3 F=POINT
0.00000000 28.00000000 0.00000000 0.00014588 0.00009371 0.00008917 0.00008335 0.00007813 0.00007515 0.00007223 0.00007078 0.00005662 0.00005224 
0.00000000 27.85714290 0.00000000 0.00014656 0.00009412 0.00008955 0.00008370 0.00007845 0.00007546 0.00007252 0.00007107 0.00005682 0.00005241 
0.00000000 27.42857140 0.00000000 0.00014840 0.00009523 0.00009060 0.00008467 0.00007934 0.00007629 0.00007331 0.00007184 0.00005736 0.00005287 
0.00000000 26.71428570 0.00000000 0.00015111 0.00009687 0.00009214 0.00008607 0.00008062 0.00007752 0.00007446 0.00007295 0.00005813 0.00005355 
0.00000000 25.71428570 0.00000000 0.00015397 0.00009857 0.00009374 0.00008754 0.00008196 0.00007878 0.00007565 0.00007411 0.00005891 0.00005420 
0.00000000 24.42857140 0.00000000 0.00015604 0.00009978 0.00009486 0.00008855 0.00008287 0.00007964 0.00007645 0.00007488 0.00005938 0.00005458 
0.00000000 22.85714290 0.00000000 0.00015598 0.00009965 0.00009473 0.00008839 0.00008271 0.00007946 0.00007626 0.00007468 0.00005911 0.00005429 
0.00000000 21.00000000 0.00000000 0.00015151 0.00009680 0.00009202 0.00008586 0.00008034 0.00007718 0.00007407 0.00007253 0.00005737 0.00005267 
0.00000000 18.85714290 0.00000000 0.00014195 0.00009078 0.00008631 0.00008057 0.00007540 0.00007245 0.00006955 0.00006811 0.00005392 0.00004951 
0.00000000 16.42857140 0.00000000 0.00012942 0.00008294 0.00007889 0.00007368 0.00006900 0.00006632 0.00006369 0.00006239 0.00004950 0.00004548 
0.00000000 13.71428570 0.00000000 0.00011037 0.00007104 0.00006763 0.00006324 0.00005930 0.00005706 0.00005484 0.00005375 0.00004290 0.00003949 
0.00000000 10.71428570 0.00000000 0.00008151 0.00005304 0.00005060 0.00004747 0.00004467 0.00004307 0.00004150 0.00004073 0.00003300 0.00003055 
0.00000000 7.42857143 0.00000000 0.00004958 0.00003306 0.00003169 0.00002995 0.00002840 0.00002752 0.00002666 0.00002624 0.00002201 0.00002064 
0.00000000 3.85714286 0.00000000 0.00001939 0.00001404 0.00001367 0.00001324 0.00001288 0.00001269 0.00001252 0.00001243 0.00001160 0.00001127 
0.00000000 0.00000000 0.00000000 0.00000220 0.00000354 0.00000377 0.00000412 0.00000445 0.00000467 0.00000489 0.00000500 0.00000613 0.00000639 
0.25000000 28.00000000 0.00000000 0.00011869 0.00007888 0.00007534 0.00007080 0.00006670 0.00006435 0.00006205 0.00006090 0.00004959 0.00004604 
0.25000000 27.85714290 0.00000000 0.00011823 0.00007871 0.00007520 0.00007068 0.00006660 0.00006426 0.00006196 0.00006082 0.00004953 0.00004599 
0.25000000 27.42857140 0.00000000 0.00011721 0.00007839 0.00007492 0.00007045 0.00006640 0.00006409 0.00006181 0.00006068 0.00004945 0.00004591 
0.25000000 26.71428570 0.00000000 0.00011563 0.00007787 0.00007446 0.00007007 0.00006609 0.00006380 0.00006155 0.00006043 0.00004929 0.00004577 
0.25000000 25.71428570 0.00000000 0.00011311 0.00007686 0.00007356 0.00006928 0.00006540 0.00006317 0.00006096 0.00005987 0.00004891 0.00004543 
0.25000000 24.42857140 0.00000000 0.00010921 0.00007504 0.00007188 0.00006780 0.00006407 0.00006192 0.00005979 0.00005873 0.00004809 0.00004469 
0.25000000 22.85714290 0.00000000 0.00010347 0.00007201 0.00006906 0.00006524 0.00006174 0.00005971 0.00005770 0.00005670 0.00004658 0.00004332 
0.25000000 21.00000000 0.00000000 0.00009502 0.00006709 0.00006444 0.00006098 0.00005781 0.00005597 0.00005414 0.00005323 0.00004394 0.00004093 
0.25000000 18.85714290 0.00000000 0.00008418 0.00006036 0.00005807 0.00005508 0.00005231 0.00005071 0.00004912 0.00004832 0.00004014 0.00003746 
0.25000000 16.42857140 0.00000000 0.00007267 0.00005296 0.00005104 0.00004853 0.00004620 0.00004485 0.00004350 0.00004283 0.00003584 0.00003353 
0.25000000 13.71428570 0.00000000 0.00005888 0.00004368 0.00004218 0.00004023 0.00003842 0.00003736 0.00003631 0.00003578 0.00003027 0.00002842 
0.25000000 10.71428570 0.00000000 0.00004158 0.00003155 0.00003057 0.00002929 0.00002811 0.00002742 0.00002674 0.00002638 0.00002277 0.00002153 
0.25000000 7.42857143 0.00000000 0.00002442 0.00001916 0.00001867 0.00001805 0.00001747 0.00001714 0.00001681 0.00001664 0.00001492 0.00001430 
0.25000000 3.85714286 0.00000000 0.00000934 0.00000800 0.00000793 0.00000786 0.00000781 0.00000779 0.00000778 0.00000778 0.00000777 0.00000773 
0.25000000 0.00000000 0.00000000 0.00000105 0.00000201 0.00000218 0.00000243 0.00000269 0.00000286 0.00000303 0.00000312 0.00000409 0.00000437 
0.50000000 28.00000000 0.00000000 0.00010840 0.00007198 0.00006877 0.00006466 0.00006095 0.00005884 0.00005675 0.00005572 0.00004556 0.00004237 
0.50000000 27.85714290 0.00000000 0.00010696 0.00007130 0.00006815 0.00006411 0.00006046 0.00005837 0.00005633 0.00005531 0.00004527 0.00004212 
0.50000000 27.42857140 0.00000000 0.00010353 0.00006972 0.00006671 0.00006282 0.00005932 0.00005731 0.00005533 0.00005435 0.00004461 0.00004154 
0.50000000 26.71428570 0.00000000 0.00009852 0.00006738 0.00006456 0.00006092 0.00005762 0.00005572 0.00005385 0.00005292 0.00004363 0.00004068 
0.50000000 25.71428570 0.00000000 0.00009198 0.00006420 0.00006163 0.00005831 0.00005528 0.00005353 0.00005180 0.00005094 0.00004226 0.00003947 
0.50000000 24.42857140 0.00000000 0.00008399 0.00006010 0.00005783 0.00005489 0.00005219 0.00005062 0.00004906 0.00004829 0.00004038 0.00003781 
0.50000000 22.85714290 0.00000000 0.00007473 0.00005504 0.00005311 0.00005059 0.00004826 0.00004690 0.00004556 0.00004487 0.00003789 0.00003558 
0.50000000 21.00000000 0.00000000 0.00006422 0.00004881 0.00004725 0.00004520 0.00004328 0.00004217 0.00004104 0.00004048 0.00003457 0.00003259 
0.50000000 18.85714290 0.00000000 0.00005317 0.00004178 0.00004058 0.00003900 0.00003751 0.00003663 0.00003575 0.00003530 0.00003055 0.00002891 
0.50000000 16.42857140 0.00000000 0.00004286 0.00003488 0.00003400 0.00003284 0.00003173 0.00003107 0.00003040 0.00003006 0.00002640 0.00002510 
0.50000000 13.71428570 0.00000000 0.00003252 0.00002744 0.00002686 0.00002608 0.00002533 0.00002488 0.00002442 0.00002419 0.00002161 0.00002067 
0.50000000 10.71428570 0.00000000 0.00002168 0.00001902 0.00001871 0.00001829 0.00001788 0.00001764 0.00001739 0.00001726 0.00001582 0.00001527 
0.50000000 7.42857143 0.00000000 0.00001215 0.00001118 0.00001107 0.00001093 0.00001080 0.00001072 0.00001065 0.00001061 0.00001015 0.00000995 
0.50000000 3.85714286 0.00000000 0.00000451 0.00000457 0.00000461 0.00000467 0.00000474 0.00000479 0.00000485 0.00000488 0.00000522 0.00000531 
0.50000000 0.00000000 0.00000000 0.00000050 0.00000114 0.00000126 0.00000144 0.00000163 0.00000175 0.00000188 0.00000195 0.00000273 0.00000298 
0.75000000 28.00000000 0.00000000 0.00010398 0.00006853 0.00006543 0.00006146 0.00005789 0.00005586 0.00005386 0.00005288 0.00004316 0.00004014 
0.75000000 27.85714290 0.00000000 0.00010164 0.00006738 0.00006438 0.00006052 0.00005705 0.00005506 0.00005312 0.00005215 0.00004266 0.00003969 
0.75000000 27.42857140 0.00000000 0.00009614 0.00006469 0.00006190 0.00005831 0.00005505 0.00005320 0.00005137 0.00005046 0.00004148 0.00003866 
0.75000000 26.71428570 0.00000000 0.00008835 0.00006082 0.00005833 0.00005510 0.00005217 0.00005049 0.00004884 0.00004801 0.00003978 0.00003716 
0.75000000 25.71428570 0.00000000 0.00007880 0.00005591 0.00005378 0.00005101 0.00004848 0.00004701 0.00004557 0.00004485 0.00003756 0.00003521 
0.75000000 24.42857140 0.00000000 0.00006807 0.00005013 0.00004840 0.00004614 0.00004405 0.00004283 0.00004163 0.00004102 0.00003482 0.00003278 
0.75000000 22.85714290 0.00000000 0.00005686 0.00004372 0.00004239 0.00004065 0.00003901 0.00003806 0.00003711 0.00003662 0.00003159 0.00002989 
0.75000000 21.00000000 0.00000000 0.00004562 0.00003680 0.00003585 0.00003461 0.00003342 0.00003271 0.00003201 0.00003165 0.00002781 0.00002647 
0.75000000 18.85714290 0.00000000 0.00003516 0.00002985 0.00002924 0.00002842 0.00002762 0.00002715 0.00002667 0.00002642 0.00002370 0.00002270 
0.75000000 16.42857140 0.00000000 0.00002628 0.00002358 0.00002322 0.00002274 0.00002226 0.00002197 0.00002168 0.00002152 0.00001974 0.00001905 
0.75000000 13.71428570 0.00000000 0.00001850 0.00001757 0.00001741 0.00001720 0.00001696 0.00001682 0.00001667 0.00001659 0.00001560 0.00001519 
0.75000000 10.71428570 0.00000000 0.00001153 0.00001161 0.00001158 0.00001155 0.00001149 0.00001146 0.00001143 0.00001140 0.00001107 0.00001090 
0.75000000 7.42857143 0.00000000 0.00000611 0.00000656 0.00000660 0.00000666 0.00000672 0.00000675 0.00000678 0.00000680 0.00000693 0.00000694 
0.75000000 3.85714286 0.00000000 0.00000219 0.00000262 0.00000268 0.00000278 0.00000289 0.00000295 0.00000303 0.00000306 0.00000350 0.00000364 
0.75000000 0.00000000 0.00000000 0.00000024 0.00000065 0.00000073 0.00000085 0.00000098 0.00000107 0.00000117 0.00000122 0.00000182 0.00000204 
1.00000000 28.00000000 0.00000000 0.00010181 0.00006666 0.00006360 0.00005968 0.00005616 0.00005416 0.00005219 0.00005122 0.00004168 0.00003872 
1.00000000 27.85714290 0.00000000 0.00009865 0.00006508 0.00006214 0.00005837 0.00005498 0.00005305 0.00005115 0.00005021 0.00004097 0.00003810 
1.00000000 27.42857140 0.00000000 0.00009128 0.00006139 0.00005873 0.00005531 0.00005222 0.00005045 0.00004871 0.00004785 0.00003932 0.00003665 
1.00000000 26.71428570 0.00000000 0.00008117 0.00005621 0.00005393 0.00005099 0.00004832 0.00004678 0.00004527 0.00004451 0.00003698 0.00003458 
1.00000000 25.71428570 0.00000000 0.00006933 0.00004991 0.00004807 0.00004569 0.00004351 0.00004225 0.00004100 0.00004037 0.00003404 0.00003199 
1.00000000 24.42857140 0.00000000 0.00005681 0.00004290 0.00004153 0.00003973 0.00003806 0.00003709 0.00003612 0.00003564 0.00003062 0.00002894 
1.00000000 22.85714290 0.00000000 0.00004464 0.00003565 0.00003471 0.00003347 0.00003229 0.00003160 0.00003091 0.00003055 0.00002684 0.00002555 
1.00000000 21.00000000 0.00000000 0.00003348 0.00002847 0.00002790 0.00002713 0.00002640 0.00002595 0.00002551 0.00002527 0.00002277 0.00002186 
1.00000000 18.85714290 0.00000000 0.00002400 0.00002185 0.00002156 0.00002117 0.00002078 0.00002054 0.00002029 0.00002016 0.00001867 0.00001809 
1.00000000 16.42857140 0.00000000 0.00001659 0.00001628 0.00001618 0.00001606 0.00001591 0.00001581 0.00001572 0.00001566 0.00001495 0.00001464 
1.00000000 13.71428570 0.00000000 0.00001078 0.00001144 0.00001147 0.00001151 0.00001152 0.00001152 0.00001153 0.00001152 0.00001138 0.00001126 
1.00000000 10.71428570 0.00000000 0.00000624 0.00000717 0.00000725 0.00000737 0.00000746 0.00000751 0.00000757 0.00000759 0.00000780 0.00000783 
1.00000000 7.42857143 0.00000000 0.00000311 0.00000388 0.00000396 0.00000408 0.00000420 0.00000427 0.00000434 0.00000438 0.00000475 0.00000486 
1.00000000 3.85714286 0.00000000 0.00000106 0.00000150 0.00000156 0.00000166 0.00000176 0.00000182 0.00000189 0.00000192 0.00000236 0.00000251 
1.00000000 0.00000000 0.00000000 0.00000012 0.00000037 0.00000042 0.00000050 0.00000059 0.00000065 0.00000072 0.00000076 0.00000122 0.00000139 
1.25000000 28.00000000 0.00000000 0.00010059 0.00006557 0.00006252 0.00005862 0.00005512 0.00005312 0.00005117 0.00005020 0.00004073 0.00003780 
1.25000000 27.85714290 0.00000000 0.00009664 0.00006357 0.00006067 0.00005696 0.00005362 0.00005171 0.00004984 0.00004892 0.00003983 0.00003700 
1.25000000 27.42857140 0.00000000 0.00008759 0.00005897 0.00005641 0.00005312 0.00005015 0.00004845 0.00004678 0.00004595 0.00003774 0.00003516 
1.25000000 26.71428570 0.00000000 0.00007547 0.00005263 0.00005053 0.00004781 0.00004534 0.00004392 0.00004252 0.00004181 0.00003481 0.00003258 
1.25000000 25.71428570 0.00000000 0.00006186 0.00004521 0.00004360 0.00004153 0.00003962 0.00003851 0.00003741 0.00003686 0.00003126 0.00002944 
1.25000000 24.42857140 0.00000000 0.00004821 0.00003731 0.00003621 0.00003477 0.00003341 0.00003262 0.00003183 0.00003143 0.00002729 0.00002590 
1.25000000 22.85714290 0.00000000 0.00003573 0.00002959 0.00002892 0.00002803 0.00002718 0.00002666 0.00002616 0.00002590 0.00002312 0.00002214 
1.25000000 21.00000000 0.00000000 0.00002510 0.00002244 0.00002210 0.00002165 0.00002120 0.00002093 0.00002066 0.00002051 0.00001890 0.00001829 
1.25000000 18.85714290 0.00000000 0.00001676 0.00001630 0.00001619 0.00001605 0.00001589 0.00001579 0.00001569 0.00001563 0.00001491 0.00001459 
1.25000000 16.42857140 0.00000000 0.00001071 0.00001143 0.00001147 0.00001151 0.00001154 0.00001155 0.00001156 0.00001156 0.00001146 0.00001136 
1.25000000 13.71428570 0.00000000 0.00000641 0.00000756 0.00000766 0.00000780 0.00000792 0.00000799 0.00000806 0.00000809 0.00000837 0.00000841 
1.25000000 10.71428570 0.00000000 0.00000343 0.00000447 0.00000458 0.00000474 0.00000489 0.00000497 0.00000506 0.00000510 0.00000553 0.00000566 
1.25000000 7.42857143 0.00000000 0.00000159 0.00000230 0.00000239 0.00000252 0.00000264 0.00000271 0.00000279 0.00000283 0.00000327 0.00000341 
1.25000000 3.85714286 0.00000000 0.00000052 0.00000086 0.00000091 0.00000099 0.00000107 0.00000112 0.00000118 0.00000121 0.00000158 0.00000173 
1.25000000 0.00000000 0.00000000 0.00000006 0.00000021 0.00000024 0.00000030 0.00000036 0.00000040 0.00000045 0.00000047 0.00000082 0.00000096 
1.50000000 28.00000000 0.00000000 0.00009983 0.00006487 0.00006183 0.00005793 0.00005444 0.00005245 0.00005050 0.00004953 0.00004009 0.00003717 
1.50000000 27.85714290 0.00000000 0.00009512 0.00006248 0.00005962 0.00005595 0.00005264 0.00005076 0.00004891 0.00004800 0.00003900 0.00003621 
1.50000000 27.42857140 0.00000000 0.00008450 0.00005702 0.00005456 0.00005138 0.00004851 0.00004687 0.00004525 0.00004445 0.00003650 0.00003400 
1.50000000 26.71428570 0.00000000 0.00007065 0.00004967 0.00004772 0.00004520 0.00004290 0.00004157 0.00004026 0.00003961 0.00003306 0.00003096 
1.50000000 25.71428570 0.00000000 0.00005567 0.00004132 0.00003992 0.00003810 0.00003641 0.00003543 0.00003446 0.00003397 0.00002898 0.00002734 
1.50000000 24.42857140 0.00000000 0.00004134 0.00003281 0.00003191 0.00003074 0.00002964 0.00002899 0.00002835 0.00002802 0.00002457 0.00002340 
1.50000000 22.85714290 0.00000000 0.00002896 0.00002486 0.00002439 0.00002375 0.00002314 0.00002277 0.00002240 0.00002221 0.00002013 0.00001938 
1.50000000 21.00000000 0.00000000 0.00001909 0.00001793 0.00001775 0.00001750 0.00001725 0.00001710 0.00001694 0.00001685 0.00001586 0.00001546 
1.50000000 18.85714290 0.00000000 0.00001190 0.00001233 0.00001232 0.00001233 0.00001231 0.00001229 0.00001228 0.00001226 0.00001203 0.00001189 
1.50000000 16.42857140 0.00000000 0.00000703 0.00000814 0.00000823 0.00000837 0.00000847 0.00000854 0.00000860 0.00000863 0.00000887 0.00000890 
1.50000000 13.71428570 0.00000000 0.00000387 0.00000505 0.00000518 0.00000535 0.00000550 0.00000560 0.00000569 0.00000574 0.00000621 0.00000634 
1.50000000 10.71428570 0.00000000 0.00000191 0.00000282 0.00000293 0.00000308 0.00000322 0.00000331 0.00000340 0.00000345 0.00000395 0.00000411 
1.50000000 7.42857143 0.00000000 0.00000082 0.00000138 0.00000145 0.00000156 0.00000166 0.00000173 0.00000180 0.00000183 0.00000225 0.00000240 
1.50000000 3.85714286 0.00000000 0.00000025 0.00000050 0.00000054 0.00000060 0.00000066 0.00000070 0.00000074 0.00000077 0.00000107 0.00000119 
1.50000000 0.00000000 0.00000000 0.00000003 0.00000012 0.00000014 0.00000018 0.00000022 0.00000024 0.00000028 0.00000029 0.00000055 0.00000065 
1.75000000 28.00000000 0.00000000 0.00009930 0.00006440 0.00006136 0.00005747 0.00005398 0.00005199 0.00005004 0.00004908 0.00003964 0.00003672 
1.75000000 27.85714290 0.00000000 0.00009386 0.00006163 0.00005880 0.00005517 0.00005189 0.00005003 0.00004819 0.00004728 0.00003837 0.00003560 
1.75000000 27.42857140 0.00000000 0.00008177 0.00005536 0.00005298 0.00004992 0.00004714 0.00004555 0.00004398 0.00004320 0.00003548 0.00003305 
1.75000000 26.71428570 0.00000000 0.00006640 0.00004710 0.00004529 0.00004294 0.00004080 0.00003956 0.00003834 0.00003772 0.00003157 0.00002959 
1.75000000 25.71428570 0.00000000 0.00005036 0.00003799 0.00003676 0.00003516 0.00003367 0.00003280 0.00003194 0.00003151 0.00002704 0.00002556 
1.75000000 24.42857140 0.00000000 0.00003569 0.00002905 0.00002833 0.00002739 0.00002649 0.00002596 0.00002542 0.00002515 0.00002228 0.00002129 
1.75000000 22.85714290 0.00000000 0.00002367 0.00002107 0.00002074 0.00002030 0.00001986 0.00001960 0.00001934 0.00001920 0.00001767 0.00001709 
1.75000000 21.00000000 0.00000000 0.00001468 0.00001446 0.00001439 0.00001429 0.00001417 0.00001409 0.00001402 0.00001397 0.00001342 0.00001317 
1.75000000 18.85714290 0.00000000 0.00000854 0.00000942 0.00000948 0.00000957 0.00000963 0.00000967 0.00000970 0.00000972 0.00000979 0.00000977 
1.75000000 16.42857140 0.00000000 0.00000468 0.00000586 0.00000598 0.00000615 0.00000629 0.00000637 0.00000646 0.00000650 0.00000692 0.00000703 
1.75000000 13.71428570 0.00000000 0.00000237 0.00000341 0.00000353 0.00000370 0.00000386 0.00000396 0.00000406 0.00000411 0.00000464 0.00000481 
1.75000000 10.71428570 0.00000000 0.00000107 0.00000179 0.00000188 0.00000201 0.00000214 0.00000222 0.00000231 0.00000235 0.00000283 0.00000300 
1.75000000 7.42857143 0.00000000 0.00000043 0.00000083 0.00000089 0.00000097 0.00000105 0.00000111 0.00000117 0.00000120 0.00000156 0.00000170 
1.75000000 3.85714286 0.00000000 0.00000012 0.00000029 0.00000032 0.00000036 0.00000040 0.00000043 0.00000047 0.00000049 0.00000073 0.00000082 
1.75000000 0.00000000 0.00000000 0.00000001 0.00000007 0.00000008 0.00000010 0.00000013 0.00000015 0.00000017 0.00000018 0.00000036 0.00000045 
0.00000000 28.00000000 10.00000000 0.00004854 0.00003210 0.00003072 0.00002898 0.00002743 0.00002656 0.00002573 0.00002531 0.00002149 0.00002034 
0.00000000 27.85714290 10.00000000 0.00004913 0.00003248 0.00003108 0.00002930 0.00002774 0.00002686 0.00002601 0.00002559 0.00002170 0.00002053 
0.00000000 27.42857140 10.00000000 0.00005085 0.00003358 0.00003212 0.00003028 0.00002864 0.00002773 0.00002684 0.00002640 0.00002230 0.00002106 
0.00000000 26.71428570 10.00000000 0.00005359 0.00003533 0.00003378 0.00003182 0.00003008 0.00002910 0.00002815 0.00002768 0.00002325 0.00002191 
0.00000000 25.71428570 10.00000000 0.00005705 0.00003752 0.00003586 0.00003376 0.00003188 0.00003082 0.00002979 0.00002929 0.00002444 0.00002297 
0.00000000 24.42857140 10.00000000 0.00006083 0.00003990 0.00003812 0.00003585 0.00003383 0.00003268 0.00003157 0.00003102 0.00002572 0.00002409 
0.00000000 22.85714290 10.00000000 0.00006411 0.00004196 0.00004007 0.00003766 0.00003551 0.00003428 0.00003309 0.00003251 0.00002679 0.00002504 
0.00000000 21.00000000 10.00000000 0.00006556 0.00004287 0.00004092 0.00003845 0.00003624 0.00003499 0.00003375 0.00003315 0.00002722 0.00002538 
0.00000000 18.85714290 10.00000000 0.00006435 0.00004210 0.00004020 0.00003778 0.00003561 0.00003437 0.00003317 0.00003257 0.00002670 0.00002487 
0.00000000 16.42857140 10.00000000 0.00006114 0.00004021 0.00003841 0.00003610 0.00003404 0.00003286 0.00003171 0.00003115 0.00002554 0.00002378 
0.00000000 13.71428570 10.00000000 0.00005429 0.00003581 0.00003423 0.00003221 0.00003041 0.00002938 0.00002837 0.00002787 0.00002295 0.00002140 
0.00000000 10.71428570 10.00000000 0.00004147 0.00002763 0.00002646 0.00002499 0.00002367 0.00002292 0.00002219 0.00002183 0.00001825 0.00001712 
0.00000000 7.42857143 10.00000000 0.00002591 0.00001760 0.00001702 0.00001619 0.00001547 0.00001507 0.00001467 0.00001448 0.00001260 0.00001198 
0.00000000 3.85714286 10.00000000 0.00001060 0.00000773 0.00000758 0.00000744 0.00000731 0.00000725 0.00000721 0.00000718 0.00000703 0.00000696 
0.00000000 0.00000000 10.00000000 0.00000139 0.00000212 0.00000228 0.00000252 0.00000277 0.00000292 0.00000309 0.00000317 0.00000406 0.00000430 
0.25000000 28.00000000 10.00000000 0.00002990 0.00002181 0.00002110 0.00002021 0.00001943 0.00001898 0.00001856 0.00001835 0.00001644 0.00001586 
0.25000000 27.85714290 10.00000000 0.00003012 0.00002199 0.00002128 0.00002038 0.00001959 0.00001914 0.00001871 0.00001850 0.00001655 0.00001595 
0.25000000 27.42857140 10.00000000 0.00003094 0.00002262 0.00002188 0.00002095 0.00002012 0.00001966 0.00001921 0.00001899 0.00001692 0.00001628 
0.25000000 26.71428570 10.00000000 0.00003230 0.00002364 0.00002287 0.00002189 0.00002101 0.00002051 0.00002002 0.00001979 0.00001753 0.00001682 
0.25000000 25.71428570 10.00000000 0.00003395 0.00002490 0.00002408 0.00002304 0.00002209 0.00002155 0.00002103 0.00002077 0.00001828 0.00001749 
0.25000000 24.42857140 10.00000000 0.00003558 0.00002616 0.00002530 0.00002419 0.00002319 0.00002261 0.00002206 0.00002177 0.00001904 0.00001816 
0.25000000 22.85714290 10.00000000 0.00003666 0.00002707 0.00002618 0.00002504 0.00002399 0.00002340 0.00002281 0.00002251 0.00001959 0.00001865 
0.25000000 21.00000000 10.00000000 0.00003648 0.00002713 0.00002625 0.00002511 0.00002407 0.00002348 0.00002289 0.00002259 0.00001963 0.00001865 
0.25000000 18.85714290 10.00000000 0.00003475 0.00002607 0.00002525 0.00002419 0.00002321 0.00002265 0.00002209 0.00002181 0.00001896 0.00001801 
0.25000000 16.42857140 10.00000000 0.00003209 0.00002437 0.00002363 0.00002266 0.00002177 0.00002126 0.00002075 0.00002049 0.00001786 0.00001697 
0.25000000 13.71428570 10.00000000 0.00002765 0.00002124 0.00002062 0.00001982 0.00001908 0.00001865 0.00001823 0.00001802 0.00001581 0.00001506 
0.25000000 10.71428570 10.00000000 0.00002050 0.00001598 0.00001562 0.00001507 0.00001458 0.00001429 0.00001401 0.00001386 0.00001239 0.00001187 
0.25000000 7.42857143 10.00000000 0.00001250 0.00001006 0.00000984 0.00000962 0.00000938 0.00000925 0.00000913 0.00000907 0.00000845 0.00000822 
0.25000000 3.85714286 10.00000000 0.00000503 0.00000438 0.00000436 0.00000436 0.00000440 0.00000442 0.00000445 0.00000446 0.00000468 0.00000474 
0.25000000 0.00000000 10.00000000 0.00000065 0.00000119 0.00000131 0.00000148 0.00000166 0.00000178 0.00000190 0.00000197 0.00000269 0.00000292 
0.50000000 28.00000000 10.00000000 0.00002315 0.00001717 0.00001667 0.00001605 0.00001551 0.00001521 0.00001493 0.00001479 0.00001360 0.00001325 
0.50000000 27.85714290 10.00000000 0.00002307 0.00001719 0.00001669 0.00001608 0.00001554 0.00001524 0.00001496 0.00001482 0.00001362 0.00001327 
0.50000000 27.42857140 10.00000000 0.00002319 0.00001742 0.00001693 0.00001631 0.00001577 0.00001546 0.00001517 0.00001504 0.00001378 0.00001341 
0.50000000 26.71428570 10.00000000 0.00002350 0.00001785 0.00001736 0.00001674 0.00001618 0.00001588 0.00001558 0.00001543 0.00001409 0.00001368 
0.50000000 25.71428570 10.00000000 0.00002384 0.00001836 0.00001787 0.00001725 0.00001668 0.00001636 0.00001606 0.00001590 0.00001446 0.00001401 
0.50000000 24.42857140 10.00000000 0.00002397 0.00001876 0.00001828 0.00001766 0.00001710 0.00001678 0.00001647 0.00001631 0.00001479 0.00001430 
0.50000000 22.85714290 10.00000000 0.00002359 0.00001882 0.00001836 0.00001777 0.00001723 0.00001692 0.00001661 0.00001646 0.00001491 0.00001440 
0.50000000 21.00000000 10.00000000 0.00002236 0.00001823 0.00001782 0.00001729 0.00001680 0.00001651 0.00001623 0.00001608 0.00001462 0.00001411 
0.50000000 18.85714290 10.00000000 0.00002022 0.00001693 0.00001658 0.00001614 0.00001572 0.00001548 0.00001523 0.00001511 0.00001381 0.00001334 
0.50000000 16.42857140 10.00000000 0.00001782 0.00001530 0.00001502 0.00001467 0.00001433 0.00001413 0.00001393 0.00001382 0.00001272 0.00001232 
0.50000000 13.71428570 10.00000000 0.00001462 0.00001286 0.00001270 0.00001245 0.00001221 0.00001206 0.00001192 0.00001184 0.00001102 0.00001072 
0.50000000 10.71428570 10.00000000 0.00001038 0.00000941 0.00000931 0.00000921 0.00000908 0.00000901 0.00000893 0.00000890 0.00000847 0.00000830 
0.50000000 7.42857143 10.00000000 0.00000638 0.00000578 0.00000576 0.00000573 0.00000573 0.00000572 0.00000572 0.00000571 0.00000569 0.00000566 
0.50000000 3.85714286 10.00000000 0.00000239 0.00000247 0.00000251 0.00000257 0.00000264 0.00000270 0.00000275 0.00000278 0.00000312 0.00000323 
0.50000000 0.00000000 10.00000000 0.00000031 0.00000069 0.00000075 0.00000087 0.00000099 0.00000108 0.00000117 0.00000122 0.00000179 0.00000199 
0.75000000 28.00000000 10.00000000 0.00002040 0.00001494 0.00001450 0.00001396 0.00001349 0.00001323 0.00001300 0.00001288 0.00001195 0.00001169 
0.75000000 27.85714290 10.00000000 0.00002007 0.00001481 0.00001438 0.00001386 0.00001340 0.00001315 0.00001292 0.00001281 0.00001189 0.00001163 
0.75000000 27.42857140 10.00000000 0.00001963 0.00001471 0.00001431 0.00001381 0.00001337 0.00001313 0.00001290 0.00001280 0.00001187 0.00001161 
0.75000000 26.71428570 10.00000000 0.00001917 0.00001469 0.00001430 0.00001383 0.00001341 0.00001318 0.00001296 0.00001286 0.00001192 0.00001165 
0.75000000 25.71428570 10.00000000 0.00001859 0.00001462 0.00001428 0.00001384 0.00001345 0.00001323 0.00001302 0.00001292 0.00001198 0.00001170 
0.75000000 24.42857140 10.00000000 0.00001775 0.00001441 0.00001410 0.00001371 0.00001336 0.00001315 0.00001297 0.00001287 0.00001196 0.00001167 
0.75000000 22.85714290 10.00000000 0.00001649 0.00001387 0.00001362 0.00001329 0.00001299 0.00001282 0.00001266 0.00001257 0.00001175 0.00001147 
0.75000000 21.00000000 10.00000000 0.00001471 0.00001287 0.00001268 0.00001244 0.00001221 0.00001208 0.00001195 0.00001188 0.00001120 0.00001095 
0.75000000 18.85714290 10.00000000 0.00001253 0.00001144 0.00001132 0.00001117 0.00001101 0.00001093 0.00001084 0.00001079 0.00001029 0.00001010 
0.75000000 16.42857140 10.00000000 0.00001036 0.00000988 0.00000983 0.00000975 0.00000966 0.00000962 0.00000957 0.00000954 0.00000923 0.00000908 
0.75000000 13.71428570 10.00000000 0.00000799 0.00000798 0.00000796 0.00000797 0.00000794 0.00000793 0.00000791 0.00000791 0.00000779 0.00000771 
0.75000000 10.71428570 10.00000000 0.00000536 0.00000562 0.00000564 0.00000568 0.00000572 0.00000574 0.00000576 0.00000576 0.00000584 0.00000584 
0.75000000 7.42857143 10.00000000 0.00000312 0.00000334 0.00000338 0.00000344 0.00000350 0.00000355 0.00000360 0.00000361 0.00000384 0.00000391 
0.75000000 3.85714286 10.00000000 0.00000114 0.00000145 0.00000145 0.00000152 0.00000159 0.00000164 0.00000170 0.00000173 0.00000208 0.00000221 
0.75000000 0.00000000 10.00000000 0.00000014 0.00000039 0.00000044 0.00000051 0.00000060 0.00000065 0.00000072 0.00000076 0.00000119 0.00000135 
1.00000000 28.00000000 10.00000000 0.00001912 0.00001378 0.00001335 0.00001283 0.00001238 0.00001214 0.00001192 0.00001181 0.00001095 0.00001073 
1.00000000 27.85714290 10.00000000 0.00001856 0.00001352 0.00001312 0.00001262 0.00001219 0.00001196 0.00001175 0.00001165 0.00001082 0.00001061 
1.00000000 27.42857140 10.00000000 0.00001766 0.00001315 0.00001278 0.00001233 0.00001193 0.00001172 0.00001152 0.00001143 0.00001065 0.00001043 
1.00000000 26.71428570 10.00000000 0.00001661 0.00001275 0.00001243 0.00001202 0.00001167 0.00001148 0.00001130 0.00001121 0.00001048 0.00001027 
1.00000000 25.71428570 10.00000000 0.00001537 0.00001226 0.00001198 0.00001164 0.00001135 0.00001118 0.00001103 0.00001095 0.00001028 0.00001008 
1.00000000 24.42857140 10.00000000 0.00001391 0.00001159 0.00001138 0.00001111 0.00001087 0.00001074 0.00001062 0.00001055 0.00000998 0.00000981 
1.00000000 22.85714290 10.00000000 0.00001218 0.00001067 0.00001052 0.00001034 0.00001017 0.00001008 0.00000999 0.00000994 0.00000952 0.00000938 
1.00000000 21.00000000 10.00000000 0.00001019 0.00000944 0.00000936 0.00000927 0.00000917 0.00000912 0.00000907 0.00000904 0.00000880 0.00000869 
1.00000000 18.85714290 10.00000000 0.00000812 0.00000799 0.00000798 0.00000796 0.00000793 0.00000792 0.00000791 0.00000790 0.00000782 0.00000778 
1.00000000 16.42857140 10.00000000 0.00000626 0.00000657 0.00000659 0.00000664 0.00000667 0.00000669 0.00000671 0.00000672 0.00000680 0.00000680 
1.00000000 13.71428570 10.00000000 0.00000450 0.00000505 0.00000510 0.00000517 0.00000526 0.00000529 0.00000534 0.00000535 0.00000556 0.00000560 
1.00000000 10.71428570 10.00000000 0.00000282 0.00000340 0.00000346 0.00000355 0.00000363 0.00000369 0.00000374 0.00000377 0.00000405 0.00000414 
1.00000000 7.42857143 10.00000000 0.00000155 0.00000195 0.00000200 0.00000208 0.00000216 0.00000221 0.00000227 0.00000230 0.00000261 0.00000271 
1.00000000 3.85714286 10.00000000 0.00000055 0.00000082 0.00000086 0.00000090 0.00000097 0.00000101 0.00000105 0.00000108 0.00000139 0.00000151 
1.00000000 0.00000000 10.00000000 0.00000007 0.00000022 0.00000025 0.00000031 0.00000036 0.00000040 0.00000044 0.00000047 0.00000079 0.00000092 
1.25000000 28.00000000 10.00000000 0.00001845 0.00001313 0.00001270 0.00001218 0.00001174 0.00001150 0.00001128 0.00001117 0.00001033 0.00001011 
1.25000000 27.85714290 10.00000000 0.00001768 0.00001275 0.00001236 0.00001187 0.00001146 0.00001123 0.00001102 0.00001092 0.00001013 0.00000992 
1.25000000 27.42857140 10.00000000 0.00001638 0.00001214 0.00001179 0.00001137 0.00001100 0.00001080 0.00001062 0.00001053 0.00000981 0.00000962 
1.25000000 26.71428570 10.00000000 0.00001485 0.00001143 0.00001114 0.00001079 0.00001049 0.00001031 0.00001016 0.00001008 0.00000946 0.00000929 
1.25000000 25.71428570 10.00000000 0.00001314 0.00001060 0.00001038 0.00001011 0.00000987 0.00000973 0.00000961 0.00000955 0.00000905 0.00000890 
1.25000000 24.42857140 10.00000000 0.00001128 0.00000962 0.00000947 0.00000928 0.00000912 0.00000902 0.00000894 0.00000890 0.00000853 0.00000843 
1.25000000 22.85714290 10.00000000 0.00000931 0.00000845 0.00000838 0.00000828 0.00000819 0.00000814 0.00000809 0.00000807 0.00000788 0.00000782 
1.25000000 21.00000000 10.00000000 0.00000730 0.00000712 0.00000710 0.00000709 0.00000707 0.00000706 0.00000706 0.00000705 0.00000704 0.00000703 
1.25000000 18.85714290 10.00000000 0.00000544 0.00000573 0.00000576 0.00000581 0.00000584 0.00000587 0.00000590 0.00000591 0.00000606 0.00000609 
1.25000000 16.42857140 10.00000000 0.00000389 0.00000446 0.00000452 0.00000460 0.00000469 0.00000474 0.00000479 0.00000481 0.00000507 0.00000515 