TITLE="DIR03_SCB_EB_E_WD000.dat"
VARIABLES= "Density" "Radius" "Height" "0.32" "0.6617" "1.3325" 
ZONE T="3D Data" I=8 J=3 K=3 F=POINT
0.00000000e+000 1.14309521e+001 0.00000000e+000 2.74915975e-004 1.56601739e-004 9.59519470e-005 
0.00000000e+000 1.97989899e+001 0.00000000e+000 1.47707689e-004 8.53893457e-005 5.42505716e-005 
0.00000000e+000 2.55603860e+001 0.00000000e+000 1.18514753e-004 6.82651417e-005 4.31885727e-005 
2.50000000e-001 1.14309521e+001 0.00000000e+000 1.42617259e-004 9.74792975e-005 6.79304999e-005 
2.50000000e-001 1.97989899e+001 0.00000000e+000 9.28405033e-005 6.02231739e-005 4.17510304e-005 
2.50000000e-001 2.55603860e+001 0.00000000e+000 8.77407254e-005 5.38055565e-005 3.58944258e-005 
5.00000000e-001 1.14309521e+001 0.00000000e+000 7.75559448e-005 6.21972825e-005 4.87280566e-005 
5.00000000e-001 1.97989899e+001 0.00000000e+000 6.63917237e-005 4.58536868e-005 3.35509426e-005 
5.00000000e-001 2.55603860e+001 0.00000000e+000 7.62088982e-005 4.70195891e-005 3.17581738e-005 
7.50000000e-001 1.14309521e+001 0.00000000e+000 4.39647648e-005 4.06063775e-005 3.53922035e-005 
7.50000000e-001 1.97989899e+001 0.00000000e+000 5.06722620e-005 3.66781920e-005 2.78581376e-005 
7.50000000e-001 2.55603860e+001 0.00000000e+000 6.99784793e-005 4.32435181e-005 2.92188199e-005 
1.00000000e+000 1.14309521e+001 0.00000000e+000 2.58100622e-005 2.70608900e-005 2.60062523e-005 
1.00000000e+000 1.97989899e+001 0.00000000e+000 3.98385379e-005 3.02101245e-005 2.36809789e-005 
1.00000000e+000 2.55603860e+001 0.00000000e+000 6.54112045e-005 4.06780208e-005 2.75035191e-005 
1.25000000e+000 1.14309521e+001 0.00000000e+000 1.55980138e-005 1.83666805e-005 1.93192707e-005 
1.25000000e+000 1.97989899e+001 0.00000000e+000 3.17557655e-005 2.53045683e-005 2.04536501e-005 
1.25000000e+000 2.55603860e+001 0.00000000e+000 6.15325869e-005 3.86404728e-005 2.62186049e-005 
1.50000000e+000 1.14309521e+001 0.00000000e+000 9.65407726e-006 1.26699243e-005 1.44962439e-005 
1.50000000e+000 1.97989899e+001 0.00000000e+000 2.54935718e-005 2.13988538e-005 1.78599220e-005 
1.50000000e+000 2.55603860e+001 0.00000000e+000 5.80870878e-005 3.68667201e-005 2.51644802e-005 
1.75000000e+000 1.14309521e+001 0.00000000e+000 6.08897594e-006 8.86097667e-006 1.09749487e-005 
1.75000000e+000 1.97989899e+001 0.00000000e+000 2.05382579e-005 1.82011482e-005 1.57104833e-005 
1.75000000e+000 2.55603860e+001 0.00000000e+000 5.57427023e-005 3.52455703e-005 2.42539939e-005 
0.00000000e+000 1.14309521e+001 1.00000000e+001 1.25352943e-004 7.40189835e-005 4.82968939e-005 
0.00000000e+000 1.97989899e+001 1.00000000e+001 5.16741418e-005 3.13100097e-005 2.18446477e-005 
0.00000000e+000 2.55603860e+001 1.00000000e+001 3.16161963e-005 1.90801771e-005 1.34722527e-005 
2.50000000e-001 1.14309521e+001 1.00000000e+001 6.05971578e-005 4.39203453e-005 3.31391647e-005 
2.50000000e-001 1.97989899e+001 1.00000000e+001 2.40940076e-005 1.80124466e-005 1.47861314e-005 
2.50000000e-001 2.55603860e+001 1.00000000e+001 1.27347110e-005 9.87896540e-006 8.61250914e-006 
5.00000000e-001 1.14309521e+001 1.00000000e+001 3.09976162e-005 2.67159553e-005 2.30394339e-005 
5.00000000e-001 1.97989899e+001 1.00000000e+001 1.39243331e-005 1.15899272e-005 1.05979203e-005 
5.00000000e-001 2.55603860e+001 1.00000000e+001 7.53926891e-006 6.24430947e-006 6.11425370e-006 
7.50000000e-001 1.14309521e+001 1.00000000e+001 1.64625766e-005 1.66530035e-005 1.62306446e-005 
7.50000000e-001 1.97989899e+001 1.00000000e+001 9.42304814e-006 8.22202119e-006 8.01318922e-006 
7.50000000e-001 2.55603860e+001 1.00000000e+001 5.94099563e-006 4.73031717e-006 4.79295289e-006 
1.00000000e+000 1.14309521e+001 1.00000000e+001 9.11177721e-006 1.06251477e-005 1.15757319e-005 
1.00000000e+000 1.97989899e+001 1.00000000e+001 6.97709651e-006 6.26791376e-006 6.33435288e-006 
1.00000000e+000 2.55603860e+001 1.00000000e+001 5.34050744e-006 4.03995259e-006 4.06285198e-006 
1.25000000e+000 1.14309521e+001 1.00000000e+001 5.25092704e-006 6.92863822e-006 8.35323561e-006 
1.25000000e+000 1.97989899e+001 1.00000000e+001 5.38690135e-006 4.99780713e-006 5.18131337e-006 
1.25000000e+000 2.55603860e+001 1.00000000e+001 5.05717634e-006 3.66626193e-006 3.63024055e-006 
1.50000000e+000 1.14309521e+001 1.00000000e+001 3.11671794e-006 4.60478221e-006 6.10123432e-006 
1.50000000e+000 1.97989899e+001 1.00000000e+001 4.25633574e-006 4.09990498e-006 4.35238184e-006 
1.50000000e+000 2.55603860e+001 1.00000000e+001 4.94408810e-006 3.42063248e-006 3.35436429e-006 
1.75000000e+000 1.14309521e+001 1.00000000e+001 1.89115470e-006 3.11679904e-006 4.49911371e-006 
1.75000000e+000 1.97989899e+001 1.00000000e+001 3.56239776e-006 3.41638508e-006 3.71448918e-006 
1.75000000e+000 2.55603860e+001 1.00000000e+001 6.18996610e-006 3.22239125e-006 3.15812607e-006 
0.00000000e+000 1.14309521e+001 2.00000000e+001 6.89096192e-006 4.43193068e-006 4.51461571e-006 
0.00000000e+000 1.97989899e+001 2.00000000e+001 7.00156956e-006 4.51196744e-006 3.95007231e-006 
0.00000000e+000 2.55603860e+001 2.00000000e+001 7.03322610e-006 4.42812102e-006 4.10118550e-006 
2.50000000e-001 1.14309521e+001 2.00000000e+001 2.53860328e-006 2.20550197e-006 2.80540249e-006 
2.50000000e-001 1.97989899e+001 2.00000000e+001 2.12046504e-006 1.86733739e-006 2.21401868e-006 
2.50000000e-001 2.55603860e+001 2.00000000e+001 1.73642479e-006 1.63880186e-006 2.35079884e-006 
5.00000000e-001 1.14309521e+001 2.00000000e+001 9.54729491e-007 1.12012015e-006 1.76290488e-006 
5.00000000e-001 1.97989899e+001 2.00000000e+001 6.13445123e-007 7.76141009e-007 1.28001806e-006 
5.00000000e-001 2.55603860e+001 2.00000000e+001 4.28886818e-007 6.11081681e-007 1.47043844e-006 
7.50000000e-001 1.14309521e+001 2.00000000e+001 3.60019424e-007 5.80063183e-007 1.11696454e-006 
7.50000000e-001 1.97989899e+001 2.00000000e+001 2.00797852e-007 3.27289393e-007 7.65587734e-007 
7.50000000e-001 2.55603860e+001 2.00000000e+001 1.05715789e-007 2.35331725e-007 1.01538248e-006 
1.00000000e+000 1.14309521e+001 2.00000000e+001 1.36116376e-007 3.18452160e-007 7.14403168e-007 
1.00000000e+000 1.97989899e+001 2.00000000e+001 6.09410945e-008 1.35671567e-007 4.76586326e-007 
1.00000000e+000 2.55603860e+001 2.00000000e+001 2.93607745e-008 9.54529906e-008 7.70463397e-007 
1.25000000e+000 1.14309521e+001 2.00000000e+001 5.23210957e-008 1.64829049e-007 4.60731839e-007 
1.25000000e+000 1.97989899e+001 2.00000000e+001 1.87869915e-008 6.25183281e-008 3.10772054e-007 
1.25000000e+000 2.55603860e+001 2.00000000e+001 9.44520859e-009 3.99250729e-008 6.36957898e-007 
1.50000000e+000 1.14309521e+001 2.00000000e+001 2.27293344e-008 8.31926564e-008 3.03812777e-007 
1.50000000e+000 1.97989899e+001 2.00000000e+001 9.23801496e-013 2.67780751e-008 2.13925049e-007 
1.50000000e+000 2.55603860e+001 2.00000000e+001 1.00116564e-012 1.80443158e-008 5.57079807e-007 
1.75000000e+000 1.14309521e+001 2.00000000e+001 8.25918367e-009 4.36317669e-008 2.01487052e-007 
1.75000000e+000 1.97989899e+001 2.00000000e+001 1.03210562e-012 1.15994343e-008 1.52214613e-007 
1.75000000e+000 2.55603860e+001 2.00000000e+001 9.99727145e-013 1.18315090e-008 5.01483400e-007 
END