TITLE="1RL_E_WD140.dat"
VARIABLES= "Density" "Radius" "Height" "0.1053" "0.356" "0.6617" "0.7889" "1.1732" "1.3325" "1.408" "2" "3" 
ZONE T="3D Data" I=11 J=15 K=11 F=POINT
0.00000000e+000 3.50000000e+001 0.00000000e+000 2.49062682e-004 1.67890199e-004 1.07012416e-004 9.46420736e-005 7.27350322e-005 6.68674047e-005 6.44646329e-005 4.96414321e-005 3.52825249e-005 
0.00000000e+000 3.48214286e+001 0.00000000e+000 2.48165342e-004 1.67324563e-004 1.06671526e-004 9.43471743e-005 7.25203930e-005 6.66732428e-005 6.42786559e-005 4.95027299e-005 3.51855564e-005 
0.00000000e+000 3.42857143e+001 0.00000000e+000 2.44873223e-004 1.65127647e-004 1.05315644e-004 9.31664425e-005 7.16485992e-005 6.58814356e-005 6.35190119e-005 4.89315088e-005 3.47836209e-005 
0.00000000e+000 3.33928571e+001 0.00000000e+000 2.39888266e-004 1.61839596e-004 1.03310193e-004 9.14270753e-005 7.03740249e-005 6.47256828e-005 6.24108385e-005 4.80998505e-005 3.41984979e-005 
0.00000000e+000 3.21428571e+001 0.00000000e+000 2.34366763e-004 1.58156341e-004 1.01111044e-004 8.95337230e-005 6.90028567e-005 6.34846252e-005 6.12214850e-005 4.72077667e-005 3.35702660e-005 
0.00000000e+000 3.05357143e+001 0.00000000e+000 2.30233640e-004 1.55450444e-004 9.95807858e-005 8.82319660e-005 6.80685670e-005 6.26369976e-005 6.04078622e-005 4.65888694e-005 3.31300503e-005 
0.00000000e+000 2.85714286e+001 0.00000000e+000 2.29664784e-004 1.54990025e-004 9.93203373e-005 8.79986321e-005 6.78600764e-005 6.24315079e-005 6.02036000e-005 4.64025975e-005 3.29879482e-005 
0.00000000e+000 2.62500000e+001 0.00000000e+000 2.32490120e-004 1.56860072e-004 1.00401384e-004 8.88996929e-005 6.84342952e-005 6.29231385e-005 6.06629421e-005 4.66980511e-005 3.31865396e-005 
0.00000000e+000 2.35714286e+001 0.00000000e+000 2.35317493e-004 1.58943540e-004 1.01579496e-004 8.98706264e-005 6.90384541e-005 6.34378058e-005 6.11430680e-005 4.70069726e-005 3.33976509e-005 
0.00000000e+000 2.05357143e+001 0.00000000e+000 2.35052410e-004 1.58878014e-004 1.01410616e-004 8.96643824e-005 6.87740598e-005 6.31667705e-005 6.08711278e-005 4.67604179e-005 3.32208070e-005 
0.00000000e+000 1.71428571e+001 0.00000000e+000 2.26860308e-004 1.53450873e-004 9.79358826e-005 8.65903438e-005 6.64255175e-005 6.10167472e-005 5.88027177e-005 4.51913482e-005 3.21192457e-005 
0.00000000e+000 1.33928571e+001 0.00000000e+000 2.04838601e-004 1.38930973e-004 8.89947886e-005 7.88017710e-005 6.06905824e-005 5.58236612e-005 5.38287274e-005 4.14981433e-005 2.95410768e-005 
0.00000000e+000 9.28571429e+000 0.00000000e+000 1.69311909e-004 1.15387692e-004 7.46064872e-005 6.63278714e-005 5.16298498e-005 4.76545401e-005 4.60180698e-005 3.57484594e-005 2.55363388e-005 
0.00000000e+000 4.82142857e+000 0.00000000e+000 1.28096093e-004 8.76930277e-005 5.79515666e-005 5.20135012e-005 4.14303383e-005 3.85034999e-005 3.72845641e-005 2.93656882e-005 2.10851527e-005 
0.00000000e+000 0.00000000e+000 0.00000000e+000 1.11603057e-004 7.57009401e-005 5.09874696e-005 4.60929487e-005 3.72884012e-005 3.48005097e-005 3.37546439e-005 2.67913119e-005 1.92733761e-005 
2.50000000e-001 3.50000000e+001 0.00000000e+000 2.61025248e-004 1.65567028e-004 1.04547354e-004 9.23523858e-005 7.08994402e-005 6.51812652e-005 6.28423682e-005 4.84316685e-005 3.44789638e-005 
2.50000000e-001 3.48214286e+001 0.00000000e+000 2.59343574e-004 1.64674847e-004 1.04066349e-004 9.19492902e-005 7.06251082e-005 6.49378213e-005 6.26110009e-005 4.82660798e-005 3.43663542e-005 
2.50000000e-001 3.42857143e+001 0.00000000e+000 2.50836912e-004 1.60643668e-004 1.01816689e-004 9.00326694e-005 6.92714073e-005 6.37254525e-005 6.14550277e-005 4.74318965e-005 3.38086360e-005 
2.50000000e-001 3.33928571e+001 0.00000000e+000 2.39405660e-004 1.54878185e-004 9.85919290e-005 8.72900009e-005 6.73420849e-005 6.19988731e-005 5.98090997e-005 4.62434281e-005 3.30107725e-005 
2.50000000e-001 3.21428571e+001 0.00000000e+000 2.22330771e-004 1.46793870e-004 9.42569382e-005 8.36474788e-005 6.48415836e-005 5.97763468e-005 5.76963359e-005 4.47427503e-005 3.20210389e-005 
2.50000000e-001 3.05357143e+001 0.00000000e+000 2.02455395e-004 1.37866783e-004 8.96686295e-005 7.98338947e-005 6.22764723e-005 5.75092800e-005 5.55464154e-005 4.32400410e-005 3.10540412e-005 
2.50000000e-001 2.85714286e+001 0.00000000e+000 1.77715429e-004 1.27446824e-004 8.44597122e-005 7.55253918e-005 5.94081360e-005 5.49852892e-005 5.31581502e-005 4.16047550e-005 3.00466038e-005 
2.50000000e-001 2.62500000e+001 0.00000000e+000 1.47172559e-004 1.15471427e-004 7.86963641e-005 7.08005475e-005 5.63276983e-005 5.22963948e-005 5.06235716e-005 3.99225615e-005 2.90695272e-005 
2.50000000e-001 2.35714286e+001 0.00000000e+000 1.26772361e-004 1.07406581e-004 7.48312781e-005 6.76314670e-005 5.42567076e-005 5.04873227e-005 4.89179732e-005 3.87927494e-005 2.84244511e-005 
2.50000000e-001 2.05357143e+001 0.00000000e+000 1.08684219e-004 9.91653471e-005 7.05639240e-005 6.40575968e-005 5.18133819e-005 4.83226531e-005 4.68644253e-005 3.73708739e-005 2.75454715e-005 
2.50000000e-001 1.71428571e+001 0.00000000e+000 9.09901645e-005 8.90941459e-005 6.47149792e-005 5.90197730e-005 4.81720407e-005 4.50423483e-005 4.37298479e-005 3.50879426e-005 2.60135266e-005 
2.50000000e-001 1.33928571e+001 0.00000000e+000 7.26608044e-005 7.58312929e-005 5.62692568e-005 5.15973283e-005 4.26035588e-005 3.99729476e-005 3.88638070e-005 3.14352601e-005 2.34504483e-005 
2.50000000e-001 9.28571429e+000 0.00000000e+000 5.43592187e-005 5.99392923e-005 4.55395249e-005 4.20605928e-005 3.53150546e-005 3.33054747e-005 3.24506014e-005 2.65530597e-005 1.99504212e-005 
2.50000000e-001 4.82142857e+000 0.00000000e+000 3.84449529e-005 4.40787956e-005 3.45562096e-005 3.22893196e-005 2.78541571e-005 2.64793118e-005 2.58831482e-005 2.15289927e-005 1.62990539e-005 
2.50000000e-001 0.00000000e+000 0.00000000e+000 3.26604497e-005 3.76008694e-005 3.01488825e-005 2.83957950e-005 2.49144509e-005 2.37942398e-005 2.33009069e-005 1.95495888e-005 1.48419215e-005 
5.00000000e-001 3.50000000e+001 0.00000000e+000 3.29850269e-004 1.80606476e-004 1.09468287e-004 9.58634072e-005 7.24453817e-005 6.63329452e-005 6.38491005e-005 4.87851501e-005 3.44923204e-005 
5.00000000e-001 3.48214286e+001 0.00000000e+000 3.27754809e-004 1.79491243e-004 1.08904618e-004 9.54005099e-005 7.21433351e-005 6.60678360e-005 6.35981993e-005 4.86087043e-005 3.43724249e-005 
5.00000000e-001 3.42857143e+001 0.00000000e+000 3.09730597e-004 1.73122894e-004 1.05623324e-004 9.26514453e-005 7.02639371e-005 6.44010388e-005 6.20156329e-005 4.74975009e-005 3.36537718e-005 
5.00000000e-001 3.33928571e+001 0.00000000e+000 2.89737731e-004 1.64830751e-004 1.01226228e-004 8.89536095e-005 6.77201697e-005 6.21402566e-005 5.98669459e-005 4.59766716e-005 3.26577845e-005 
5.00000000e-001 3.21428571e+001 0.00000000e+000 2.56706033e-004 1.52124701e-004 9.47917335e-005 8.36123455e-005 6.41435831e-005 5.89863430e-005 5.68792070e-005 4.39029906e-005 3.13283749e-005 
5.00000000e-001 3.05357143e+001 0.00000000e+000 2.18779788e-004 1.37355179e-004 8.74356797e-005 7.75366769e-005 6.01168247e-005 5.54471250e-005 5.35314464e-005 4.16055008e-005 2.98843587e-005 
5.00000000e-001 2.85714286e+001 0.00000000e+000 1.72013739e-004 1.18566966e-004 7.80617052e-005 6.97858407e-005 5.49763972e-005 5.09342294e-005 4.92660942e-005 3.87088727e-005 2.81120672e-005 
5.00000000e-001 2.62500000e+001 0.00000000e+000 1.17134088e-004 9.54236628e-005 6.65202397e-005 6.02558651e-005 4.86984335e-005 4.54429184e-005 4.40857065e-005 3.52481979e-005 2.60591994e-005 
5.00000000e-001 2.35714286e+001 0.00000000e+000 8.47557451e-005 8.02687734e-005 5.87646418e-005 5.38185014e-005 4.44181284e-005 4.16903704e-005 4.05425165e-005 3.28721967e-005 2.46513929e-005 
5.00000000e-001 2.05357143e+001 0.00000000e+000 6.07715604e-005 6.71719995e-005 5.16474181e-005 4.78196366e-005 4.02975294e-005 3.80411169e-005 3.70816875e-005 3.04816372e-005 2.31705100e-005 
5.00000000e-001 1.71428571e+001 0.00000000e+000 4.25219866e-005 5.49693053e-005 4.43602765e-005 4.15236273e-005 3.57387543e-005 3.39367706e-005 3.31612633e-005 2.76397122e-005 2.12828515e-005 
5.00000000e-001 1.33928571e+001 0.00000000e+000 2.87135557e-005 4.30797255e-005 3.64298901e-005 3.44803176e-005 3.03444906e-005 2.89981025e-005 2.84098951e-005 2.40313420e-005 1.87345741e-005 
5.00000000e-001 9.28571429e+000 0.00000000e+000 1.85483325e-005 3.18028451e-005 2.81419711e-005 2.69556489e-005 2.43372722e-005 2.34334889e-005 2.30297708e-005 1.98154167e-005 1.56369861e-005 
5.00000000e-001 4.82142857e+000 0.00000000e+000 1.17717038e-005 2.23034937e-005 2.06840033e-005 2.01098416e-005 1.87692082e-005 1.82469624e-005 1.80027902e-005 1.58057017e-005 1.26114769e-005 
5.00000000e-001 0.00000000e+000 0.00000000e+000 9.55802646e-006 1.86764573e-005 1.78270294e-005 1.74933736e-005 1.66467278e-005 1.62688953e-005 1.60846687e-005 1.42653120e-005 1.14293745e-005 
7.50000000e-001 3.50000000e+001 0.00000000e+000 4.44826170e-004 2.05841112e-004 1.18785925e-004 1.02881668e-004 7.61294136e-005 6.93078459e-005 6.65568409e-005 5.01973287e-005 3.50883413e-005 
7.50000000e-001 3.48214286e+001 0.00000000e+000 4.43692580e-004 2.04596256e-004 1.18186131e-004 1.02398581e-004 7.58265789e-005 6.90444889e-005 6.63083867e-005 5.00237849e-005 3.49683281e-005 
7.50000000e-001 3.42857143e+001 0.00000000e+000 4.05872833e-004 1.94786520e-004 1.13560517e-004 9.85954951e-005 7.33179852e-005 6.68423022e-005 6.42264842e-005 4.86001894e-005 3.40744532e-005 
7.50000000e-001 3.33928571e+001 0.00000000e+000 3.72109784e-004 1.83346544e-004 1.07841910e-004 9.38456564e-005 7.01265339e-005 6.40249667e-005 6.15564726e-005 4.67434487e-005 3.28824194e-005 
7.50000000e-001 3.21428571e+001 0.00000000e+000 3.12101953e-004 1.64791866e-004 9.90156272e-005 8.66156079e-005 6.54072398e-005 5.98940363e-005 5.76554142e-005 4.40873703e-005 3.12151228e-005 
7.50000000e-001 3.05357143e+001 0.00000000e+000 2.47573647e-004 1.43321822e-004 8.87502242e-005 7.82072907e-005 5.99245629e-005 5.50986794e-005 5.31289648e-005 4.10214939e-005 2.93156381e-005 
7.50000000e-001 2.85714286e+001 0.00000000e+000 1.74819518e-004 1.16179546e-004 7.54158286e-005 6.72137388e-005 5.26751439e-005 4.87453057e-005 4.71285257e-005 3.69638812e-005 2.68393966e-005 
7.50000000e-001 2.62500000e+001 0.00000000e+000 9.97579636e-005 8.35660002e-005 5.88636286e-005 5.34876087e-005 4.35599094e-005 4.07546663e-005 3.95833398e-005 3.18921155e-005 2.37979349e-005 
7.50000000e-001 2.35714286e+001 0.00000000e+000 6.14398206e-005 6.36037199e-005 4.81900636e-005 4.45391936e-005 3.74985891e-005 3.54137862e-005 3.45297837e-005 2.84574843e-005 2.17212954e-005 
7.50000000e-001 2.05357143e+001 0.00000000e+000 3.71341872e-005 4.80518160e-005 3.92637133e-005 3.69271523e-005 3.21606645e-005 3.06614137e-005 3.00131772e-005 2.52998135e-005 1.97395089e-005 
7.50000000e-001 1.71428571e+001 0.00000000e+000 2.16971813e-005 3.55076541e-005 3.13374832e-005 2.99996061e-005 2.70430251e-005 2.60312058e-005 2.55819557e-005 2.20573176e-005 1.75752699e-005 
7.50000000e-001 1.33928571e+001 0.00000000e+000 1.22280211e-005 2.53085770e-005 2.40849993e-005 2.34664310e-005 2.19025504e-005 2.12905337e-005 2.10076751e-005 1.85294695e-005 1.50579537e-005 
7.50000000e-001 9.28571429e+000 0.00000000e+000 6.65300538e-006 1.72042561e-005 1.75937592e-005 1.74491559e-005 1.68926922e-005 1.65940890e-005 1.64445867e-005 1.48545550e-005 1.22949463e-005 
7.50000000e-001 4.82142857e+000 0.00000000e+000 3.67277654e-006 1.13584378e-005 1.24268663e-005 1.25644402e-005 1.26757628e-005 1.25991668e-005 1.25455008e-005 1.16199688e-005 9.76752371e-006 
7.50000000e-001 0.00000000e+000 0.00000000e+000 2.79714060e-006 9.27664877e-006 1.05411196e-005 1.07768816e-005 1.11226030e-005 1.11235726e-005 1.11032831e-005 1.04093814e-005 8.80146155e-006 
1.00000000e+000 3.50000000e+001 0.00000000e+000 6.27192704e-004 2.40354457e-004 1.31526968e-004 1.12561417e-004 8.13862412e-005 7.36194659e-005 7.05109379e-005 5.23896663e-005 3.61227984e-005 
1.00000000e+000 3.48214286e+001 0.00000000e+000 6.32283041e-004 2.39184539e-004 1.30955994e-004 1.12109061e-004 8.11131679e-005 7.33836830e-005 7.02888987e-005 5.22331527e-005 3.60096335e-005 
1.00000000e+000 3.42857143e+001 0.00000000e+000 5.52901124e-004 2.24150343e-004 1.24505042e-004 1.06913508e-004 7.78186107e-005 7.05235579e-005 6.75975499e-005 5.04433693e-005 3.49184205e-005 
1.00000000e+000 3.33928571e+001 0.00000000e+000 4.97457283e-004 2.08580345e-004 1.17194248e-004 1.00924234e-004 7.38987468e-005 6.70887409e-005 6.43524065e-005 4.82280114e-005 3.35234334e-005 
1.00000000e+000 3.21428571e+001 0.00000000e+000 3.90783233e-004 1.82196274e-004 1.05461193e-004 9.14536922e-005 6.78891601e-005 6.18701039e-005 5.94404987e-005 4.49486236e-005 3.15054533e-005 
1.00000000e+000 3.05357143e+001 0.00000000e+000 2.85526503e-004 1.52463247e-004 9.18985358e-005 8.04565265e-005 6.08568079e-005 5.57532809e-005 5.36800052e-005 4.10995933e-005 2.91524131e-005 
1.00000000e+000 2.85714286e+001 0.00000000e+000 1.80051772e-004 1.16295893e-004 7.45206119e-005 6.61955326e-005 5.15342976e-005 4.76024473e-005 4.59894155e-005 3.59262691e-005 2.60063126e-005 
1.00000000e+000 2.62500000e+001 0.00000000e+000 8.70304980e-005 7.52916672e-005 5.34968944e-005 4.87128777e-005 3.98570915e-005 3.73480300e-005 3.62993735e-005 2.93800140e-005 2.20504160e-005 
1.00000000e+000 2.35714286e+001 0.00000000e+000 4.60697221e-005 5.20844885e-005 4.06481362e-005 3.78485642e-005 3.23720251e-005 3.07202707e-005 3.00152360e-005 2.50540909e-005 1.93922161e-005 
1.00000000e+000 2.05357143e+001 0.00000000e+000 2.36853340e-005 3.55956920e-005 3.06785596e-005 2.92428449e-005 2.61939898e-005 2.51840736e-005 2.47395598e-005 2.13078922e-005 1.70031414e-005 
1.00000000e+000 1.71428571e+001 0.00000000e+000 1.16325116e-005 2.37118284e-005 2.26745068e-005 2.21462615e-005 2.08082098e-005 2.02760348e-005 2.00287400e-005 1.78060723e-005 1.46367807e-005 
1.00000000e+000 1.33928571e+001 0.00000000e+000 5.47002725e-006 1.52775813e-005 1.62144057e-005 1.62284654e-005 1.60000062e-005 1.58029609e-005 1.56973720e-005 1.44012727e-005 1.21721267e-005 
1.00000000e+000 9.28571429e+000 0.00000000e+000 2.48095481e-006 9.46944183e-006 1.11182051e-005 1.14015839e-005 1.18054022e-005 1.18231193e-005 1.18113661e-005 1.11843501e-005 9.69690301e-006 
1.00000000e+000 4.82142857e+000 0.00000000e+000 1.16575473e-006 5.82060936e-006 7.49325121e-006 7.87470613e-006 8.57944876e-006 8.71661888e-006 8.75891437e-006 8.55442225e-006 7.57206774e-006 
1.00000000e+000 0.00000000e+000 0.00000000e+000 8.18578560e-007 4.60773748e-006 6.23296231e-006 6.63915259e-006 7.43162854e-006 7.60554818e-006 7.66462142e-006 7.59571342e-006 6.77777471e-006 
1.25000000e+000 3.50000000e+001 0.00000000e+000 9.18385788e-004 2.85609966e-004 1.47603593e-004 1.24724757e-004 8.79993832e-005 7.90621128e-005 7.55119916e-005 5.52162162e-005 3.75090006e-005 
1.25000000e+000 3.48214286e+001 0.00000000e+000 9.46271135e-004 2.84981706e-004 1.47172481e-004 1.24383458e-004 8.77975338e-005 7.88876038e-005 7.53471572e-005 5.50933583e-005 3.74102339e-005 
1.25000000e+000 3.42857143e+001 0.00000000e+000 7.78594259e-004 2.61977222e-004 1.38213968e-004 1.17322990e-004 8.35039196e-005 7.52039799e-005 7.18979514e-005 5.28656190e-005 3.60922383e-005 
1.25000000e+000 3.33928571e+001 0.00000000e+000 6.90704595e-004 2.40969709e-004 1.28944087e-004 1.09836831e-004 7.87394054e-005 7.10620469e-005 6.79976803e-005 5.02546937e-005 3.44806060e-005 
1.25000000e+000 3.21428571e+001 0.00000000e+000 5.02466011e-004 2.03945342e-004 1.13589784e-004 9.76354866e-005 7.12272112e-005 6.45937275e-005 6.19309701e-005 4.62867933e-005 3.20878716e-005 
1.25000000e+000 3.05357143e+001 0.00000000e+000 3.34122740e-004 1.63777708e-004 9.61635804e-005 8.36622573e-005 6.24829183e-005 5.70340974e-005 5.48297204e-005 4.16110089e-005 2.92689819e-005 
1.25000000e+000 2.85714286e+001 0.00000000e+000 1.86430448e-004 1.17514917e-004 7.44955802e-005 6.59799384e-005 5.10464733e-005 4.70640849e-005 4.54338310e-005 3.53313386e-005 2.54685779e-005 
1.25000000e+000 2.62500000e+001 0.00000000e+000 7.68017751e-005 6.88445698e-005 4.93858886e-005 4.50613689e-005 3.70173255e-005 3.47281700e-005 3.37701729e-005 2.74209870e-005 2.06605629e-005 
1.25000000e+000 2.35714286e+001 0.00000000e+000 3.51550985e-005 4.34726059e-005 3.49183514e-005 3.27373609e-005 2.83965829e-005 2.70604115e-005 2.64861088e-005 2.23473573e-005 1.74988194e-005 
1.25000000e+000 2.05357143e+001 0.00000000e+000 1.54698686e-005 2.69672266e-005 2.44429694e-005 2.35882201e-005 2.16727670e-005 2.09946778e-005 2.06896872e-005 1.81633992e-005 1.47854071e-005 
1.25000000e+000 1.71428571e+001 0.00000000e+000 6.42347546e-006 1.62154504e-005 1.67160487e-005 1.66324970e-005 1.62356086e-005 1.59991414e-005 1.58787868e-005 1.45194541e-005 1.22826183e-005 
1.25000000e+000 1.33928571e+001 0.00000000e+000 2.52756719e-006 9.42277855e-006 1.10848566e-005 1.13790078e-005 1.18135145e-005 1.18450548e-005 1.18402989e-005 1.12748230e-005 9.89205103e-006 
1.25000000e+000 9.28571429e+000 0.00000000e+000 9.52818448e-007 5.29180790e-006 7.09557975e-006 7.51473365e-006 8.30313207e-006 8.47279321e-006 8.53072625e-006 8.45620988e-006 7.67058372e-006 
1.25000000e+000 4.82142857e+000 0.00000000e+000 3.75744616e-007 3.00058161e-006 4.53436726e-006 4.95049929e-006 5.81947736e-006 6.04219461e-006 6.12651229e-006 6.30613544e-006 5.87559679e-006 
1.25000000e+000 0.00000000e+000 0.00000000e+000 2.39555659e-007 2.28867614e-006 3.68554961e-006 4.09008365e-006 4.96548360e-006 5.20016054e-006 5.29090548e-006 5.54258317e-006 5.21938655e-006 
1.50000000e+000 3.50000000e+001 0.00000000e+000 1.39023868e-003 3.44445541e-004 1.67376983e-004 1.39535902e-004 9.59414192e-005 8.55858615e-005 8.15036689e-005 5.86105563e-005 3.91974789e-005 
1.50000000e+000 3.48214286e+001 0.00000000e+000 1.48823010e-003 3.45337059e-004 1.67278431e-004 1.39437173e-004 9.58709197e-005 8.55198322e-005 8.14385555e-005 5.85424844e-005 3.91219428e-005 
1.50000000e+000 3.42857143e+001 0.00000000e+000 1.12964117e-003 3.10154403e-004 1.54865239e-004 1.29869345e-004 9.02990944e-005 8.07978787e-005 7.70396414e-005 5.57858033e-005 3.75403197e-005 
1.50000000e+000 3.33928571e+001 0.00000000e+000 9.96617728e-004 2.82058964e-004 1.43177725e-004 1.20564281e-004 8.45430111e-005 7.58348121e-005 7.23821505e-005 5.27307263e-005 3.56928978e-005 
1.50000000e+000 3.21428571e+001 0.00000000e+000 6.63794056e-004 2.30505640e-004 1.23270794e-004 1.04998354e-004 7.52552151e-005 6.79080215e-005 6.49747569e-005 4.79883103e-005 3.28919926e-005 
1.50000000e+000 3.05357143e+001 0.00000000e+000 3.96640721e-004 1.77049240e-004 1.01252248e-004 8.75482929e-005 6.45821185e-005 5.87403933e-005 5.63860913e-005 4.24202727e-005 2.95841627e-005 
1.50000000e+000 2.85714286e+001 0.00000000e+000 1.93612130e-004 1.19301867e-004 7.49371351e-005 6.62051607e-005 5.09404976e-005 4.68867679e-005 4.52299920e-005 3.50192070e-005 2.51318726e-005 
1.50000000e+000 2.62500000e+001 0.00000000e+000 6.82364490e-005 6.34807382e-005 4.60261759e-005 4.20905147e-005 3.47216729e-005 3.26117289e-005 3.17271089e-005 2.58340864e-005 1.95239225e-005 
1.50000000e+000 2.35714286e+001 0.00000000e+000 2.71187986e-005 3.67145070e-005 3.03603501e-005 2.86575811e-005 2.51957755e-005 2.41040915e-005 2.36311274e-005 2.01339205e-005 1.59269942e-005 
1.50000000e+000 2.05357143e+001 0.00000000e+000 1.02567374e-005 2.07373407e-005 1.97484984e-005 1.92851838e-005 1.81502836e-005 1.77063067e-005 1.75005847e-005 1.56361579e-005 1.29608197e-005 
1.50000000e+000 1.71428571e+001 0.00000000e+000 3.61570939e-006 1.12802761e-005 1.25033248e-005 1.26626505e-005 1.28143584e-005 1.27616916e-005 1.27218801e-005 1.19429673e-005 1.03772366e-005 
1.50000000e+000 1.33928571e+001 0.00000000e+000 1.19401067e-006 5.91052419e-006 7.67634056e-006 8.07309755e-006 8.80470407e-006 8.95583771e-006 9.00618001e-006 8.88601137e-006 8.07910213e-006 
1.50000000e+000 9.28571429e+000 0.00000000e+000 3.74116697e-007 2.99626137e-006 4.56893101e-006 4.99229872e-006 5.87485350e-006 6.10494834e-006 6.19351475e-006 6.41901152e-006 6.08506886e-006 
1.50000000e+000 4.82142857e+000 0.00000000e+000 1.22756245e-007 1.55560070e-006 2.75328319e-006 3.12139822e-006 3.95573891e-006 4.19628722e-006 4.29301002e-006 4.65494035e-006 4.56344100e-006 
1.50000000e+000 0.00000000e+000 0.00000000e+000 7.01055664e-008 1.13679186e-006 2.17926489e-006 2.51971679e-006 3.31771526e-006 3.55551881e-006 3.65232400e-006 4.04441644e-006 4.01931270e-006 
1.75000000e+000 3.50000000e+001 0.00000000e+000 2.16764612e-003 4.20980225e-004 1.91499886e-004 1.57370101e-004 1.05297231e-004 9.32336960e-005 8.85152627e-005 6.25556617e-005 4.11632737e-005 
1.75000000e+000 3.48214286e+001 0.00000000e+000 2.46361597e-003 4.25314224e-004 1.92059883e-004 1.57726677e-004 1.05446418e-004 9.33435565e-005 8.86098660e-005 6.25701691e-005 4.11217720e-005 
1.75000000e+000 3.42857143e+001 0.00000000e+000 1.68411385e-003 3.71474501e-004 1.74882728e-004 1.44783953e-004 9.82355462e-005 8.73087942e-005 8.30172745e-005 5.91717537e-005 3.92317644e-005 
1.75000000e+000 3.33928571e+001 0.00000000e+000 1.49578099e-003 3.34271273e-004 1.60223131e-004 1.33271888e-004 9.13113930e-005 8.13875265e-005 7.74797587e-005 5.56135533e-005 3.71247326e-005 
1.75000000e+000 3.21428571e+001 0.00000000e+000 9.02079718e-004 2.62821263e-004 1.34572275e-004 1.13542403e-004 7.99111990e-005 7.17456219e-005 6.85034459e-005 4.99909928e-005 3.38739092e-005 
1.75000000e+000 3.05357143e+001 0.00000000e+000 4.78076788e-004 1.92371496e-004 1.07060130e-004 9.19999096e-005 6.70425590e-005 6.07658496e-005 5.82456092e-005 4.34470037e-005 3.00453547e-005 
1.75000000e+000 2.85714286e+001 0.00000000e+000 2.01499907e-004 1.21433379e-004 7.56513964e-005 6.66901377e-005 5.10678429e-005 4.69333956e-005 4.52458201e-005 3.48919993e-005 2.49339923e-005 
1.75000000e+000 2.62500000e+001 0.00000000e+000 6.09054623e-005 5.88447681e-005 4.31566833e-005 3.95641750e-005 3.27870980e-005 3.08322138e-005 3.00107346e-005 2.45049463e-005 1.85698896e-005 
1.75000000e+000 2.35714286e+001 0.00000000e+000 2.10780161e-005 3.12505867e-005 2.66160522e-005 2.52957163e-005 2.25413602e-005 2.16472349e-005 2.12562237e-005 1.82799977e-005 1.45971047e-005 
1.75000000e+000 2.05357143e+001 0.00000000e+000 6.87206903e-006 1.61129374e-005 1.61183880e-005 1.59250397e-005 1.53426557e-005 1.50687296e-005 1.49357172e-005 1.35688011e-005 1.14389242e-005 
1.75000000e+000 1.71428571e+001 0.00000000e+000 2.06277045e-006 7.94624286e-006 9.45819711e-006 9.74456545e-006 1.02099785e-005 1.02712023e-005 1.02825201e-005 9.89747100e-006 8.82029869e-006 
1.75000000e+000 1.33928571e+001 0.00000000e+000 5.72991025e-007 3.75678075e-006 5.37324358e-006 5.78490138e-006 6.61620807e-006 6.82334690e-006 6.90144545e-006 7.04558429e-006 6.62879456e-006 
1.75000000e+000 9.28571429e+000 0.00000000e+000 1.49368971e-007 1.71565112e-006 2.96563974e-006 3.34047563e-006 4.17981248e-006 4.42118671e-006 4.51862011e-006 4.89099946e-006 4.84054752e-006 
1.75000000e+000 4.82142857e+000 0.00000000e+000 4.05769180e-008 8.10783503e-007 1.67732766e-006 1.97375405e-006 2.69443562e-006 2.91971972e-006 3.01355562e-006 3.44059493e-006 3.54756910e-006 
1.75000000e+000 0.00000000e+000 0.00000000e+000 2.05162778e-008 5.64647706e-007 1.28859898e-006 1.55228431e-006 2.21674975e-006 2.43102380e-006 2.52120751e-006 2.95120593e-006 3.09516730e-006 
2.00000000e+000 3.50000000e+001 0.00000000e+000 3.47065089e-003 5.20888115e-004 2.20877143e-004 1.78768918e-004 1.16228512e-004 1.02110687e-004 9.66328840e-005 6.70669040e-005 4.33979867e-005 
2.00000000e+000 3.48214286e+001 0.00000000e+000 4.29872904e-003 5.32285182e-004 2.22632475e-004 1.79918073e-004 1.16726517e-004 1.02492635e-004 9.69719607e-005 6.72009741e-005 4.34040337e-005 
2.00000000e+000 3.42857143e+001 0.00000000e+000 2.57402364e-003 4.49742720e-004 1.98879046e-004 1.62429367e-004 1.07412181e-004 9.47963447e-005 8.98773721e-005 6.30224149e-005 4.11520914e-005 
2.00000000e+000 3.33928571e+001 0.00000000e+000 2.33617318e-003 4.01033788e-004 1.80589312e-004 1.48251452e-004 9.91129771e-005 8.77564363e-005 8.33161759e-005 5.88921558e-005 3.87573666e-005 
2.00000000e+000 3.21428571e+001 0.00000000e+000 1.26255369e-003 3.02245957e-004 1.47678186e-004 1.23359267e-004 8.51917704e-005 7.60902005e-005 7.24966637e-005 5.22638482e-005 3.50069457e-005 
2.00000000e+000 3.05357143e+001 0.00000000e+000 5.85769014e-004 2.09995828e-004 1.13573008e-004 9.69816734e-005 6.98103928e-005 6.30558441e-005 6.03538155e-005 4.46437201e-005 3.06184309e-005 
2.00000000e+000 2.85714286e+001 0.00000000e+000 2.10083958e-004 1.23807802e-004 7.65403931e-005 6.73403584e-005 5.13449137e-005 4.71249179e-005 4.54043666e-005 3.48889050e-005 2.48335298e-005 
2.00000000e+000 2.62500000e+001 0.00000000e+000 5.45461219e-005 5.47449122e-005 4.06330532e-005 3.73493314e-005 3.11049183e-005 2.92888922e-005 2.85237799e-005 2.33599700e-005 1.77502052e-005 
2.00000000e+000 2.35714286e+001 0.00000000e+000 1.64757381e-005 2.67482250e-005 2.34711248e-005 2.24619093e-005 2.02897775e-005 1.95596038e-005 1.92367354e-005 1.66958177e-005 1.34528860e-005 
2.00000000e+000 2.05357143e+001 0.00000000e+000 4.64062566e-006 1.26148694e-005 1.32553702e-005 1.32494110e-005 1.30635111e-005 1.29154312e-005 1.28367355e-005 1.18517307e-005 1.01537407e-005 
2.00000000e+000 1.71428571e+001 0.00000000e+000 1.18862841e-006 5.65083101e-006 7.21811657e-006 7.56328932e-006 8.19816328e-006 8.32854468e-006 8.37191099e-006 8.25505099e-006 7.53682510e-006 
2.00000000e+000 1.33928571e+001 0.00000000e+000 2.78212345e-007 2.41291366e-006 3.79479390e-006 4.18014559e-006 5.00718834e-006 5.23359131e-006 5.32320549e-006 5.61666441e-006 5.46187959e-006 
2.00000000e+000 9.28571429e+000 0.00000000e+000 6.04055304e-008 9.91799336e-007 1.93875103e-006 2.24972597e-006 2.98904751e-006 3.21689830e-006 3.31164094e-006 3.74000081e-006 3.86067930e-006 
2.00000000e+000 4.82142857e+000 0.00000000e+000 1.35481198e-008 4.24695923e-007 1.02508260e-006 1.25151336e-006 1.83899331e-006 2.03517890e-006 2.11907785e-006 2.54630888e-006 2.76033513e-006 
2.00000000e+000 0.00000000e+000 0.00000000e+000 6.00405470e-009 2.80462100e-007 7.61948366e-007 9.56292629e-007 1.48113357e-006 1.66217000e-006 1.74039524e-006 2.15349150e-006 2.38350716e-006 
2.25000000e+000 3.50000000e+001 0.00000000e+000 5.69221675e-003 6.51911597e-004 2.56681955e-004 2.04436621e-004 1.28959356e-004 1.12370022e-004 1.05985908e-004 7.21826349e-005 4.59048348e-005 
2.25000000e+000 3.48214286e+001 0.00000000e+000 7.90623809e-003 6.76990808e-004 2.60497214e-004 2.06903316e-004 1.29993134e-004 1.13160382e-004 1.06688501e-004 7.24855409e-005 4.59754956e-005 
2.25000000e+000 3.42857143e+001 0.00000000e+000 4.02537011e-003 5.50054983e-004 2.27650827e-004 1.83284485e-004 1.17977913e-004 1.03360149e-004 9.77029712e-005 6.73577460e-005 4.32980503e-005 
2.25000000e+000 3.33928571e+001 0.00000000e+000 3.79482286e-003 4.87104414e-004 2.04961252e-004 1.65905277e-004 1.08064217e-004 9.50165282e-005 8.99525770e-005 6.25764446e-005 4.05834624e-005 
2.25000000e+000 3.21428571e+001 0.00000000e+000 1.82119513e-003 3.50597775e-004 1.62859081e-004 1.34602879e-004 9.11295226e-005 8.09565676e-005 7.69633416e-005 5.47953781e-005 3.62757952e-005 
2.25000000e+000 3.05357143e+001 0.00000000e+000 7.30501349e-004 2.30286833e-004 1.20824953e-004 1.02500255e-004 7.28637769e-005 6.55848700e-005 6.26841391e-005 4.59828742e-005 3.12813023e-005 
2.25000000e+000 2.85714286e+001 0.00000000e+000 2.19394768e-004 1.26375676e-004 7.75520267e-005 6.81042843e-005 5.17232609e-005 4.74145776e-005 4.56597119e-005 3.49715267e-005 2.48026411e-005 
2.25000000e+000 2.62500000e+001 0.00000000e+000 4.89792765e-005 5.10657069e-005 3.83697435e-005 3.53665717e-005 2.96081293e-005 2.79188097e-005 2.72050733e-005 2.23508384e-005 1.70314770e-005 
2.25000000e+000 2.35714286e+001 0.00000000e+000 1.29357927e-005 2.29905332e-005 2.07883574e-005 2.00343057e-005 1.83470972e-005 1.77551707e-005 1.74899459e-005 1.53198162e-005 1.24540446e-005 
2.25000000e+000 2.05357143e+001 0.00000000e+000 3.15312668e-006 9.93333894e-006 1.09641363e-005 1.10872040e-005 1.11863531e-005 1.11322820e-005 1.10946209e-005 1.04071059e-005 9.05652902e-006 
2.25000000e+000 1.71428571e+001 0.00000000e+000 6.90259457e-007 4.04806240e-006 5.54730567e-006 5.91063858e-006 6.62486578e-006 6.79522057e-006 6.85801520e-006 6.92301939e-006 6.47023271e-006 
2.25000000e+000 1.33928571e+001 0.00000000e+000 1.36314548e-007 1.56276188e-006 2.69996913e-006 3.04195257e-006 3.81289275e-006 4.03779766e-006 4.12943154e-006 4.49932311e-006 4.51786462e-006 
2.25000000e+000 9.28571429e+000 0.00000000e+000 2.46740262e-008 5.78011327e-007 1.27548540e-006 1.52396356e-006 2.14754132e-006 2.35082501e-006 2.43726485e-006 2.86944200e-006 3.08688476e-006 
2.25000000e+000 4.82142857e+000 0.00000000e+000 4.56248952e-009 2.23494949e-007 6.28364920e-007 7.95662609e-007 1.25758862e-006 1.42111138e-006 1.49260671e-006 1.88684173e-006 2.14970778e-006 
2.25000000e+000 0.00000000e+000 0.00000000e+000 1.75707665e-009 1.39306312e-007 4.50539946e-007 5.89128927e-007 9.89627565e-007 1.13647966e-006 1.20139876e-006 1.57140022e-006 1.83547635e-006 
2.50000000e+000 3.50000000e+001 0.00000000e+000 9.54296182e-003 8.24624854e-004 3.00405004e-004 2.35259135e-004 1.43773191e-004 1.24208226e-004 1.16741810e-004 7.79592159e-005 4.86956072e-005 
2.50000000e+000 3.48214286e+001 0.00000000e+000 1.52914215e-002 8.75233244e-004 3.07648863e-004 2.39848151e-004 1.45610739e-004 1.25598610e-004 1.17973867e-004 7.84964091e-005 4.88524861e-005 
2.50000000e+000 3.42857143e+001 0.00000000e+000 6.42959025e-003 6.79224009e-004 2.62201287e-004 2.07949911e-004 1.30125277e-004 1.13132875e-004 1.06606640e-004 7.22131341e-005 4.56743810e-005 
2.50000000e+000 3.33928571e+001 0.00000000e+000 6.39897181e-003 5.99093403e-004 2.34224730e-004 1.86751794e-004 1.18322637e-004 1.03274046e-004 9.74781485e-005 6.66913521e-005 4.26036873e-005 