TITLE="2RS_E_WD210.dat"
VARIABLES= "Density" "Radius" "Height" "0.1053" "0.356" "0.6617" "0.7889" "1.1732" "1.3325" "1.408" "2" "3" 
ZONE T="3D Data" I=11 J=15 K=3 F=POINT
0.00000000e+000 3.50000000e+001 0.00000000e+000 2.64800704e-004 1.77937214e-004 1.13569031e-004 1.00476036e-004 7.72094583e-005 7.09571941e-005 6.83953159e-005 5.26011595e-005 3.73610255e-005 
0.00000000e+000 3.48214286e+001 0.00000000e+000 2.64515108e-004 1.77746689e-004 1.13438366e-004 1.00355721e-004 7.71068130e-005 7.08596894e-005 6.83000433e-005 5.25226201e-005 3.73038229e-005 
0.00000000e+000 3.42857143e+001 0.00000000e+000 2.63867817e-004 1.77315880e-004 1.13129695e-004 1.00068057e-004 7.68555067e-005 7.06195586e-005 6.80648869e-005 5.23270418e-005 3.71617590e-005 
0.00000000e+000 3.33928571e+001 0.00000000e+000 2.62496982e-004 1.76392349e-004 1.12486219e-004 9.94752466e-005 7.63518901e-005 7.01423313e-005 6.75991157e-005 5.19460052e-005 3.68864783e-005 
0.00000000e+000 3.21428571e+001 0.00000000e+000 2.60770798e-004 1.75310578e-004 1.11719693e-004 9.87621500e-005 7.57332807e-005 6.95529407e-005 6.70226630e-005 5.14698269e-005 3.65413715e-005 
0.00000000e+000 3.05357143e+001 0.00000000e+000 2.57807338e-004 1.73413391e-004 1.10414802e-004 9.75670321e-005 7.47350909e-005 6.86123840e-005 6.61068252e-005 5.07291162e-005 3.60070113e-005 
0.00000000e+000 2.85714286e+001 0.00000000e+000 2.53258463e-004 1.70445645e-004 1.08427076e-004 9.57688642e-005 7.32762378e-005 6.72494042e-005 6.47841908e-005 4.96768512e-005 3.52507861e-005 
0.00000000e+000 2.62500000e+001 0.00000000e+000 2.45416792e-004 1.65294630e-004 1.05067320e-004 9.27673956e-005 7.09156622e-005 6.50647669e-005 6.26723891e-005 4.80284388e-005 3.40717706e-005 
0.00000000e+000 2.35714286e+001 0.00000000e+000 2.32115008e-004 1.56442512e-004 9.94388135e-005 8.77955110e-005 6.71125224e-005 6.15752194e-005 5.93111070e-005 4.54520498e-005 3.22418552e-005 
0.00000000e+000 2.05357143e+001 0.00000000e+000 2.10186241e-004 1.41947966e-004 9.03624380e-005 7.98289030e-005 6.11160047e-005 5.61015921e-005 5.40501015e-005 4.14661490e-005 2.94258062e-005 
0.00000000e+000 1.71428571e+001 0.00000000e+000 1.80892085e-004 1.22536320e-004 7.82612063e-005 6.92332302e-005 5.31957320e-005 4.88895833e-005 4.71255311e-005 3.62510080e-005 2.57523390e-005 
0.00000000e+000 1.33928571e+001 0.00000000e+000 1.46337191e-004 9.95898709e-005 6.39425454e-005 5.66942846e-005 4.38264913e-005 4.03612591e-005 3.89386082e-005 3.00925074e-005 2.14142120e-005 
0.00000000e+000 9.28571429e+000 0.00000000e+000 1.13895745e-004 7.80192293e-005 5.03794182e-005 4.47896644e-005 3.48971671e-005 3.22279805e-005 3.11293207e-005 2.42153425e-005 1.72743531e-005 
0.00000000e+000 4.82142857e+000 0.00000000e+000 8.85922235e-005 6.15098306e-005 3.97794876e-005 3.54149422e-005 2.77779884e-005 2.57301179e-005 2.48864425e-005 1.95130482e-005 1.39738297e-005 
0.00000000e+000 0.00000000e+000 0.00000000e+000 8.35711104e-005 5.82026131e-005 3.69989176e-005 3.27599208e-005 2.55034570e-005 2.36043293e-005 2.28269316e-005 1.79124020e-005 1.28501761e-005 
2.50000000e-001 3.50000000e+001 0.00000000e+000 2.79402354e-004 1.76694710e-004 1.11673393e-004 9.86650915e-005 7.57031310e-005 6.95632696e-005 6.70504910e-005 5.15850109e-005 3.66798786e-005 
2.50000000e-001 3.48214286e+001 0.00000000e+000 2.80468244e-004 1.76884106e-004 1.11707801e-004 9.86765284e-005 7.56810999e-005 6.95346585e-005 6.70195678e-005 5.15469818e-005 3.66456155e-005 
2.50000000e-001 3.42857143e+001 0.00000000e+000 2.72548556e-004 1.73926238e-004 1.10206256e-004 9.74183625e-005 7.48115640e-005 6.87593689e-005 6.62817489e-005 5.10233713e-005 3.63105310e-005 
2.50000000e-001 3.33928571e+001 0.00000000e+000 2.66235479e-004 1.71092551e-004 1.08639585e-004 9.60706460e-005 7.38220919e-005 6.78602018e-005 6.54190929e-005 5.03808770e-005 3.58797128e-005 
2.50000000e-001 3.21428571e+001 0.00000000e+000 2.49635212e-004 1.64608485e-004 1.05297140e-004 9.32579002e-005 7.18615775e-005 6.61081563e-005 6.37501572e-005 4.91899105e-005 3.51126007e-005 
2.50000000e-001 3.05357143e+001 0.00000000e+000 2.30632623e-004 1.56388453e-004 1.00910188e-004 8.95387324e-005 6.92357566e-005 6.37538279e-005 6.15044746e-005 4.75735643e-005 3.40577198e-005 
2.50000000e-001 2.85714286e+001 0.00000000e+000 1.99615165e-004 1.42575943e-004 9.35831769e-005 8.33592937e-005 6.49422385e-005 5.99266519e-005 5.78631814e-005 4.49917770e-005 3.23903187e-005 
2.50000000e-001 2.62500000e+001 0.00000000e+000 1.53369332e-004 1.21608752e-004 8.24934423e-005 7.40319044e-005 5.85154254e-005 5.42147097e-005 5.24354292e-005 4.11680746e-005 2.99223812e-005 
2.50000000e-001 2.35714286e+001 0.00000000e+000 1.22347510e-004 1.05029618e-004 7.30380541e-005 6.59195281e-005 5.26828148e-005 4.89620967e-005 4.74157423e-005 3.75004069e-005 2.74447010e-005 
2.50000000e-001 2.05357143e+001 0.00000000e+000 9.51606736e-005 8.79408529e-005 6.26127143e-005 5.68290179e-005 4.59338454e-005 4.28276461e-005 4.15303495e-005 3.30940412e-005 2.43769375e-005 
2.50000000e-001 1.71428571e+001 0.00000000e+000 7.13404585e-005 7.06426147e-005 5.14790968e-005 4.70007109e-005 3.84633379e-005 3.59929417e-005 3.49553692e-005 2.80905433e-005 2.08259190e-005 
2.50000000e-001 1.33928571e+001 0.00000000e+000 5.12427243e-005 5.40075259e-005 4.02462673e-005 3.69706277e-005 3.06672157e-005 2.88159468e-005 2.80334047e-005 2.27433186e-005 1.69683890e-005 
2.50000000e-001 9.28571429e+000 0.00000000e+000 3.62958105e-005 4.03586984e-005 3.06547146e-005 2.83206672e-005 2.38141790e-005 2.24750785e-005 2.19053382e-005 1.79555582e-005 1.34768919e-005 
2.50000000e-001 4.82142857e+000 0.00000000e+000 2.65097915e-005 3.08655988e-005 2.36883044e-005 2.19576029e-005 1.86561541e-005 1.76777499e-005 1.72600367e-005 1.42945180e-005 1.07950537e-005 
2.50000000e-001 0.00000000e+000 0.00000000e+000 2.44182782e-005 2.88833579e-005 2.18626494e-005 2.01693257e-005 1.70314359e-005 1.61311577e-005 1.57499749e-005 1.30653711e-005 9.89226652e-006 
5.00000000e-001 3.50000000e+001 0.00000000e+000 3.55819427e-004 1.92832758e-004 1.16943352e-004 1.02437309e-004 7.73996316e-005 7.08450516e-005 6.81798893e-005 5.20251164e-005 3.67532963e-005 
5.00000000e-001 3.48214286e+001 0.00000000e+000 3.60390963e-004 1.93781567e-004 1.17278449e-004 1.02682765e-004 7.75131794e-005 7.09303880e-005 6.82546449e-005 5.20507861e-005 3.67534263e-005 
5.00000000e-001 3.42857143e+001 0.00000000e+000 3.38793968e-004 1.87529046e-004 1.14379115e-004 1.00312931e-004 7.59642735e-005 6.95733521e-005 6.69727827e-005 5.11804279e-005 3.62183088e-005 
5.00000000e-001 3.33928571e+001 0.00000000e+000 3.25624182e-004 1.82774189e-004 1.11953165e-004 9.82720488e-005 7.45373167e-005 6.82955722e-005 6.57544040e-005 5.03042852e-005 3.56480150e-005 
5.00000000e-001 3.21428571e+001 0.00000000e+000 2.85119470e-004 1.69973916e-004 1.05845207e-004 9.32434228e-005 7.12021461e-005 6.53611916e-005 6.29776906e-005 4.83991389e-005 3.44637604e-005 
5.00000000e-001 3.05357143e+001 0.00000000e+000 2.47683608e-004 1.55788657e-004 9.86509261e-005 8.72359261e-005 6.71072753e-005 6.17308457e-005 5.95315335e-005 4.59898686e-005 3.29343356e-005 
5.00000000e-001 2.85714286e+001 0.00000000e+000 1.92573607e-004 1.32834528e-004 8.68090248e-005 7.73377808e-005 6.03804068e-005 5.57794051e-005 5.38876628e-005 4.20702997e-005 3.04578373e-005 
5.00000000e-001 2.62500000e+001 0.00000000e+000 1.17935429e-004 9.89004298e-005 6.90968592e-005 6.25306145e-005 5.03508244e-005 4.69216107e-005 4.54944300e-005 3.62695469e-005 2.67995086e-005 
5.00000000e-001 2.35714286e+001 0.00000000e+000 7.83983888e-005 7.69568148e-005 5.66750228e-005 5.19227295e-005 4.28271163e-005 4.01805933e-005 3.90671798e-005 3.16471445e-005 2.37389574e-005 
5.00000000e-001 2.05357143e+001 0.00000000e+000 5.12503150e-005 5.85817110e-005 4.53577748e-005 4.20468970e-005 3.54987116e-005 3.35245142e-005 3.26840074e-005 2.68870796e-005 2.04493618e-005 
5.00000000e-001 1.71428571e+001 0.00000000e+000 3.24729521e-005 4.30774760e-005 3.50203579e-005 3.28470230e-005 2.83941287e-005 2.69963198e-005 2.63928453e-005 2.20547707e-005 1.69973580e-005 
5.00000000e-001 1.33928571e+001 0.00000000e+000 1.99518783e-005 3.04560495e-005 2.59186770e-005 2.45875779e-005 2.17599512e-005 2.08310496e-005 2.04233448e-005 1.73394608e-005 1.35273476e-005 
5.00000000e-001 9.28571429e+000 0.00000000e+000 1.23120275e-005 2.13369783e-005 1.88874421e-005 1.80995171e-005 1.63730750e-005 1.57786037e-005 1.55127907e-005 1.33758390e-005 1.05480323e-005 
5.00000000e-001 4.82142857e+000 0.00000000e+000 8.09858314e-006 1.55950904e-005 1.41608592e-005 1.36587578e-005 1.25583660e-005 1.21700544e-005 1.19938184e-005 1.04862534e-005 8.34741509e-006 
5.00000000e-001 0.00000000e+000 0.00000000e+000 7.13468391e-006 1.43335297e-005 1.29186376e-005 1.24176681e-005 1.13737471e-005 1.10240073e-005 1.08670651e-005 9.52993037e-006 7.61522210e-006 
7.50000000e-001 3.50000000e+001 0.00000000e+000 4.92893887e-004 2.20561820e-004 1.26884335e-004 1.09872634e-004 8.12548807e-005 7.39504426e-005 7.10041361e-005 5.34979456e-005 3.73849335e-005 
7.50000000e-001 3.48214286e+001 0.00000000e+000 5.05265245e-004 2.22755162e-004 1.27671577e-004 1.10463206e-004 8.15608835e-005 7.41957825e-005 7.12266159e-005 5.36103200e-005 3.74306112e-005 
7.50000000e-001 3.42857143e+001 0.00000000e+000 4.54792810e-004 2.11628077e-004 1.22950615e-004 1.06687428e-004 7.92016102e-005 7.21559940e-005 6.93104875e-005 5.23505930e-005 3.66783415e-005 
7.50000000e-001 3.33928571e+001 0.00000000e+000 4.29538462e-004 2.04380905e-004 1.19546640e-004 1.03881736e-004 7.73194040e-005 7.04902064e-005 6.77297759e-005 5.12439247e-005 3.59736572e-005 
7.50000000e-001 3.21428571e+001 0.00000000e+000 3.43808737e-004 1.82959056e-004 1.10076220e-004 9.62304917e-005 7.24391383e-005 6.62454060e-005 6.37322662e-005 4.85761633e-005 3.43558984e-005 
7.50000000e-001 3.05357143e+001 0.00000000e+000 2.79068760e-004 1.61948592e-004 9.99368142e-005 8.78669482e-005 6.68815424e-005 6.13550913e-005 5.91046142e-005 4.53993570e-005 3.23723315e-005 
7.50000000e-001 2.85714286e+001 0.00000000e+000 1.95421099e-004 1.29894434e-004 8.38110880e-005 7.44718398e-005 5.78976326e-005 5.34387021e-005 5.16101486e-005 4.02477785e-005 2.91501730e-005 
7.50000000e-001 2.62500000e+001 0.00000000e+000 9.74829776e-005 8.49344832e-005 6.03194722e-005 5.48462095e-005 4.46469172e-005 4.17537956e-005 4.05460642e-005 3.26425137e-005 2.43900663e-005 
7.50000000e-001 2.35714286e+001 0.00000000e+000 5.46686353e-005 5.95443456e-005 4.57233354e-005 4.23541024e-005 3.57711048e-005 3.38037106e-005 3.29679305e-005 2.72099236e-005 2.08173987e-005 
7.50000000e-001 2.05357143e+001 0.00000000e+000 3.01916405e-005 4.10525195e-005 3.40069877e-005 3.20737706e-005 2.80740245e-005 2.67992633e-005 2.62459711e-005 2.21843912e-005 1.73476426e-005 
7.50000000e-001 1.71428571e+001 0.00000000e+000 1.61274717e-005 2.74338926e-005 2.45014440e-005 2.35276145e-005 2.13455114e-005 2.05845303e-005 2.02443696e-005 1.75231330e-005 1.39908975e-005 
7.50000000e-001 1.33928571e+001 0.00000000e+000 8.37461743e-006 1.77528508e-005 1.70361727e-005 1.66446987e-005 1.56390267e-005 1.52335394e-005 1.50440531e-005 1.33284647e-005 1.08466037e-005 
7.50000000e-001 9.28571429e+000 0.00000000e+000 4.39657951e-006 1.15079765e-005 1.17753128e-005 1.16850840e-005 1.13381786e-005 1.11487661e-005 1.10532420e-005 1.00091562e-005 8.28160082e-006 
7.50000000e-001 4.82142857e+000 0.00000000e+000 2.52257391e-006 7.93243184e-006 8.49762537e-006 8.52400790e-006 8.47270873e-006 8.39515816e-006 8.35028632e-006 7.70322386e-006 6.46091915e-006 
7.50000000e-001 0.00000000e+000 0.00000000e+000 2.08466019e-006 7.11309964e-006 7.63362448e-006 7.64519984e-006 7.59549284e-006 7.53379027e-006 7.49798820e-006 6.95116761e-006 5.86231806e-006 
1.00000000e+000 3.50000000e+001 0.00000000e+000 7.28861719e-004 2.59954637e-004 1.40798396e-004 1.20327906e-004 8.68117294e-005 7.84821571e-005 7.51507003e-005 5.57721473e-005 3.84542708e-005 
1.00000000e+000 3.48214286e+001 0.00000000e+000 7.58436915e-004 2.64116136e-004 1.42232972e-004 1.21401827e-004 8.73762421e-005 7.89399755e-005 7.55684345e-005 5.59961120e-005 3.85571034e-005 
1.00000000e+000 3.42857143e+001 0.00000000e+000 6.46765979e-004 2.45551555e-004 1.35042160e-004 1.15774308e-004 8.40105189e-005 7.60664437e-005 7.28831982e-005 5.42831105e-005 3.75616827e-005 
1.00000000e+000 3.33928571e+001 0.00000000e+000 6.00987955e-004 2.34860101e-004 1.30423797e-004 1.12046234e-004 8.16118739e-005 7.39682856e-005 7.09017073e-005 5.29320029e-005 3.67197687e-005 
1.00000000e+000 3.21428571e+001 0.00000000e+000 4.28124852e-004 2.01123817e-004 1.16644052e-004 1.01122487e-004 7.49049402e-005 6.81980136e-005 6.54921350e-005 4.94140682e-005 3.46350514e-005 
1.00000000e+000 3.05357143e+001 0.00000000e+000 3.21354993e-004 1.71689645e-004 1.03172888e-004 9.01498401e-005 6.77941223e-005 6.19852073e-005 5.96302190e-005 4.54561657e-005 3.21994500e-005 
1.00000000e+000 2.85714286e+001 0.00000000e+000 2.01445242e-004 1.29800462e-004 8.26822668e-005 7.32391008e-005 5.65966199e-005 5.21538991e-005 5.03368140e-005 3.91223769e-005 2.82682068e-005 
1.00000000e+000 2.62500000e+001 0.00000000e+000 8.30131299e-005 7.51193126e-005 5.40333793e-005 4.92951883e-005 4.04284743e-005 3.78993503e-005 3.68413658e-005 2.98581249e-005 2.24838456e-005 
1.00000000e+000 2.35714286e+001 0.00000000e+000 3.96961748e-005 4.76349944e-005 3.78930047e-005 3.54200401e-005 3.04961933e-005 2.89881914e-005 2.83419270e-005 2.37503517e-005 1.84679675e-005 
1.00000000e+000 2.05357143e+001 0.00000000e+000 1.86612915e-005 2.97760169e-005 2.61644015e-005 2.50484780e-005 2.26204496e-005 2.17956566e-005 2.14298403e-005 1.85471290e-005 1.48621667e-005 
1.00000000e+000 1.71428571e+001 0.00000000e+000 8.43914561e-006 1.80479300e-005 1.75372300e-005 1.71994758e-005 1.62995105e-005 1.59216801e-005 1.57432962e-005 1.40715190e-005 1.16060295e-005 
1.00000000e+000 1.33928571e+001 0.00000000e+000 3.69798814e-006 1.06325366e-005 1.13989656e-005 1.14457267e-005 1.13713968e-005 1.12582264e-005 1.11941204e-005 1.03239043e-005 8.74477068e-006 
1.00000000e+000 9.28571429e+000 0.00000000e+000 1.63418111e-006 6.31859270e-006 7.42220234e-006 7.61587700e-006 7.90535576e-006 7.92591088e-006 7.92195714e-006 7.52244793e-006 6.52200084e-006 
1.00000000e+000 4.82142857e+000 0.00000000e+000 7.99793864e-007 4.06094864e-006 5.11824505e-006 5.33648437e-006 5.72894969e-006 5.80262105e-006 5.82455208e-006 5.66656371e-006 5.00551064e-006 
1.00000000e+000 0.00000000e+000 0.00000000e+000 6.09111279e-007 3.52992033e-006 4.51071120e-006 4.70693031e-006 5.07234098e-006 5.14858206e-006 5.17341490e-006 5.07020884e-006 4.51290528e-006 
1.25000000e+000 3.50000000e+001 0.00000000e+000 1.14219107e-003 3.13806189e-004 1.58853469e-004 1.33795305e-004 9.39301861e-005 8.42954897e-005 8.04756708e-005 5.87325478e-005 3.98903189e-005 
1.25000000e+000 3.48214286e+001 0.00000000e+000 1.20953747e-003 3.21059879e-004 1.61201785e-004 1.35535190e-004 9.48347979e-005 8.50293377e-005 8.11457498e-005 5.90965821e-005 4.00629853e-005 
1.25000000e+000 3.42857143e+001 0.00000000e+000 9.68376831e-004 2.91085203e-004 1.50618683e-004 1.27432389e-004 9.01962202e-005 8.11182909e-005 7.75098891e-005 5.68452506e-005 3.87899502e-005 
1.25000000e+000 3.33928571e+001 0.00000000e+000 8.89881553e-004 2.75636235e-004 1.44454314e-004 1.22556958e-004 8.71873885e-005 7.85173652e-005 7.50655166e-005 5.52231405e-005 3.78019772e-005 
1.25000000e+000 3.21428571e+001 0.00000000e+000 5.47843513e-004 2.24096184e-004 1.25039998e-004 1.07459154e-004 7.82662230e-005 7.09253373e-005 6.79801232e-005 5.07326712e-005 3.52020145e-005 
1.25000000e+000 3.05357143e+001 0.00000000e+000 3.76085692e-004 1.83992005e-004 1.07663587e-004 9.34884299e-005 6.94424145e-005 6.32713580e-005 6.07798708e-005 4.59519250e-005 3.23028777e-005 
1.25000000e+000 2.85714286e+001 0.00000000e+000 2.09051142e-004 1.31060456e-004 8.25407437e-005 7.28982504e-005 5.59912328e-005 5.15053705e-005 4.96746666e-005 3.84480433e-005 2.76800566e-005 
1.25000000e+000 2.62500000e+001 0.00000000e+000 7.17909983e-005 6.75627560e-005 4.91968151e-005 4.50149439e-005 3.71457196e-005 3.48873830e-005 3.39407291e-005 2.76460441e-005 2.09383473e-005 
1.25000000e+000 2.35714286e+001 0.00000000e+000 2.94906136e-005 3.89184795e-005 3.19926436e-005 3.01490682e-005 2.64015976e-005 2.52237988e-005 2.47145000e-005 2.09823803e-005 1.65428002e-005 
1.25000000e+000 2.05357143e+001 0.00000000e+000 1.18691835e-005 2.21114671e-005 2.05220878e-005 1.99160335e-005 1.85002473e-005 1.79757226e-005 1.77365671e-005 1.56796392e-005 1.28427819e-005 
1.25000000e+000 1.71428571e+001 0.00000000e+000 4.56383323e-006 1.21621350e-005 1.27836489e-005 1.27844110e-005 1.26125669e-005 1.24670952e-005 1.23889542e-005 1.14066509e-005 9.69580990e-006 
1.25000000e+000 1.33928571e+001 0.00000000e+000 1.68982054e-006 6.50811750e-006 7.74442046e-006 7.97876516e-006 8.35498572e-006 8.39994314e-006 8.40604352e-006 8.05329164e-006 7.08653494e-006 
1.25000000e+000 9.28571429e+000 0.00000000e+000 6.26119958e-007 3.52405479e-006 4.72562955e-006 5.00756198e-006 5.54746809e-006 5.66754625e-006 5.70937751e-006 5.67713779e-006 5.15145131e-006 
1.25000000e+000 4.82142857e+000 0.00000000e+000 2.57621694e-007 2.09183838e-006 3.09396775e-006 3.35129188e-006 3.88216514e-006 4.01850396e-006 4.07031544e-006 4.17402245e-006 3.88159680e-006 
1.25000000e+000 0.00000000e+000 0.00000000e+000 1.77974935e-007 1.75174621e-006 2.66538166e-006 2.89792288e-006 3.38735734e-006 3.51853465e-006 3.56952102e-006 3.69823063e-006 3.47410626e-006 
1.50000000e+000 3.50000000e+001 0.00000000e+000 1.88527179e-003 3.87016798e-004 1.81734423e-004 1.50638131e-004 1.02656365e-004 9.13956834e-005 8.69716791e-005 6.23366903e-005 4.16550616e-005 
1.50000000e+000 3.48214286e+001 0.00000000e+000 2.03485925e-003 3.99123101e-004 1.85367477e-004 1.53290905e-004 1.04004833e-004 9.24849140e-005 8.79648405e-005 6.28744826e-005 4.19118686e-005 
1.50000000e+000 3.42857143e+001 0.00000000e+000 1.51938514e-003 3.51646717e-004 1.70108755e-004 1.41863454e-004 9.77441669e-005 8.72718203e-005 8.31436239e-005 5.99769899e-005 4.03181197e-005 
1.50000000e+000 3.33928571e+001 0.00000000e+000 1.39274924e-003 3.29730981e-004 1.61975340e-004 1.35553511e-004 9.40035876e-005 8.40759087e-005 8.01545838e-005 5.80471206e-005 3.91704828e-005 
1.50000000e+000 3.21428571e+001 0.00000000e+000 7.19007224e-004 2.52352618e-004 1.35138747e-004 1.15084694e-004 8.23664595e-005 7.42805165e-005 7.10542565e-005 5.24276377e-005 3.59931361e-005 
1.50000000e+000 3.05357143e+001 0.00000000e+000 4.46699424e-004 1.98619456e-004 1.13112083e-004 9.76074500e-005 7.16133411e-005 6.50215690e-005 6.23706224e-005 4.67602903e-005 3.26083478e-005 
1.50000000e+000 2.85714286e+001 0.00000000e+000 2.17773446e-004 1.33061560e-004 8.29600573e-005 7.30745964e-005 5.58115683e-005 5.12534676e-005 4.93965757e-005 3.80720045e-005 2.72975746e-005 
1.50000000e+000 2.62500000e+001 0.00000000e+000 6.26796738e-005 6.13975284e-005 4.52711831e-005 4.15431652e-005 3.44795764e-005 3.24377879e-005 3.15799049e-005 2.58330601e-005 1.96559476e-005 
1.50000000e+000 2.35714286e+001 0.00000000e+000 2.22347812e-005 3.22448748e-005 2.73667768e-005 2.59900153e-005 2.31220496e-005 2.21935233e-005 2.17879966e-005 1.87161439e-005 1.49376421e-005 
1.50000000e+000 2.05357143e+001 0.00000000e+000 7.69320941e-006 1.66937994e-005 1.63305539e-005 1.60535886e-005 1.53113213e-005 1.49933011e-005 1.48422439e-005 1.33795917e-005 1.11808154e-005 
1.50000000e+000 1.71428571e+001 0.00000000e+000 2.52356084e-006 8.34404078e-006 9.45496731e-006 9.63178024e-006 9.86915434e-006 9.86448688e-006 9.84855833e-006 9.32318332e-006 8.15165165e-006 
1.50000000e+000 1.33928571e+001 0.00000000e+000 7.90789804e-007 4.05311929e-006 5.33005737e-006 5.62766432e-006 6.19578042e-006 6.32100387e-006 6.36451643e-006 6.32285421e-006 5.77037698e-006 
1.50000000e+000 9.28571429e+000 0.00000000e+000 2.45410275e-007 1.99223044e-006 3.03631520e-006 3.31920005e-006 3.91636484e-006 4.07487657e-006 4.13637613e-006 4.30155534e-006 4.08052101e-006 
1.50000000e+000 4.82142857e+000 0.00000000e+000 8.41399736e-008 1.08384955e-006 1.87685589e-006 2.11094468e-006 2.63632775e-006 2.78826023e-006 2.84959540e-006 3.07871270e-006 3.01283993e-006 
1.50000000e+000 0.00000000e+000 0.00000000e+000 5.20022195e-008 8.69316135e-007 1.57497601e-006 1.78416909e-006 2.26210977e-006 2.40456270e-006 2.46287660e-006 2.69750457e-006 2.67442248e-006 
1.75000000e+000 3.50000000e+001 0.00000000e+000 3.25868632e-003 4.86930974e-004 2.10541522e-004 1.71495453e-004 1.13161126e-004 9.98871337e-005 9.47213273e-005 6.65901647e-005 4.37330484e-005 
1.75000000e+000 3.48214286e+001 0.00000000e+000 3.58541823e-003 5.06645832e-004 2.15979157e-004 1.75397761e-004 1.15087113e-004 1.01432261e-004 9.61265356e-005 6.73422981e-005 4.40904736e-005 
1.75000000e+000 3.42857143e+001 0.00000000e+000 2.48685296e-003 4.32347187e-004 1.94273164e-004 1.59499864e-004 1.06753274e-004 9.45793666e-005 8.98216529e-005 6.36650032e-005 4.21236502e-005 
1.75000000e+000 3.33928571e+001 0.00000000e+000 2.29803146e-003 4.01811608e-004 1.83652043e-004 1.51405145e-004 1.02133122e-004 9.06760941e-005 8.61881407e-005 6.13817304e-005 4.07987163e-005 
1.75000000e+000 3.21428571e+001 0.00000000e+000 9.66392360e-004 2.86847973e-004 1.47009314e-004 1.24000073e-004 8.71461395e-005 7.81992239e-005 7.46493783e-005 5.44407690e-005 3.69680656e-005 
1.75000000e+000 3.05357143e+001 0.00000000e+000 5.38284260e-004 2.15663226e-004 1.19407397e-004 1.02387714e-004 7.41953526e-005 6.71309984e-005 6.43008771e-005 4.78044227e-005 3.30667707e-005 
1.75000000e+000 2.85714286e+001 0.00000000e+000 2.27473941e-004 1.35529851e-004 8.37238317e-005 7.35709928e-005 5.59037406e-005 5.12581104e-005 4.93683627e-005 3.78979630e-005 2.70612653e-005 
1.75000000e+000 2.62500000e+001 0.00000000e+000 5.50854432e-005 5.61797385e-005 4.19608773e-005 3.86194840e-005 3.22387969e-005 3.03792131e-005 2.95958081e-005 2.43061866e-005 1.85689937e-005 
1.75000000e+000 2.35714286e+001 0.00000000e+000 1.69406465e-005 2.69795446e-005 2.36327013e-005 2.26141799e-005 2.04280085e-005 1.96946372e-005 1.93706145e-005 1.68232439e-005 1.35780949e-005 
1.75000000e+000 2.05357143e+001 0.00000000e+000 5.05434681e-006 1.27564716e-005 1.31384193e-005 1.30775497e-005 1.27927521e-005 1.26199424e-005 1.25315420e-005 1.15061862e-005 9.79674690e-006 
1.75000000e+000 1.71428571e+001 0.00000000e+000 1.41786037e-006 5.80290606e-006 7.07462300e-006 7.33639282e-006 7.79506806e-006 7.87449462e-006 7.89682605e-006 7.67545782e-006 6.89261319e-006 
1.75000000e+000 1.33928571e+001 0.00000000e+000 3.76500547e-007 2.55917397e-006 3.70857762e-006 4.00940896e-006 4.63219676e-006 4.79277896e-006 4.85429009e-006 4.99359458e-006 4.71968396e-006 
1.75000000e+000 9.28571429e+000 0.00000000e+000 9.78531766e-008 1.13935222e-006 1.96694945e-006 2.21627168e-006 2.78036047e-006 2.94477570e-006 3.01149909e-006 3.27160312e-006 3.24109163e-006 
1.75000000e+000 4.82142857e+000 0.00000000e+000 2.78107795e-008 5.64676398e-007 1.14237936e-006 1.33354237e-006 1.79402730e-006 1.93826390e-006 1.99853362e-006 2.27380699e-006 2.34067153e-006 
1.75000000e+000 0.00000000e+000 0.00000000e+000 1.51944767e-008 4.31404395e-007 9.30654820e-007 1.09846273e-006 1.51065895e-006 1.64327580e-006 1.69932105e-006 1.96757113e-006 2.05881331e-006 
2.00000000e+000 3.50000000e+001 0.00000000e+000 5.86758912e-003 6.24252153e-004 2.46806930e-004 1.97268358e-004 1.25714873e-004 1.09950251e-004 1.03875199e-004 7.15329157e-005 4.61248976e-005 
2.00000000e+000 3.48214286e+001 0.00000000e+000 6.57126875e-003 6.55877236e-004 2.54778329e-004 2.02880216e-004 1.28391487e-004 1.12079405e-004 1.05805107e-004 7.25487529e-005 4.66021562e-005 
2.00000000e+000 3.42857143e+001 0.00000000e+000 4.22771592e-003 5.40489495e-004 2.24185557e-004 1.80971790e-004 1.17405596e-004 1.03158701e-004 9.76404709e-005 6.79278897e-005 4.41996252e-005 
2.00000000e+000 3.33928571e+001 0.00000000e+000 3.98019719e-003 4.98704617e-004 2.10455446e-004 1.70675408e-004 1.11731690e-004 9.84158337e-005 9.32450720e-005 6.52373007e-005 4.26761768e-005 
2.00000000e+000 3.21428571e+001 0.00000000e+000 1.32818717e-003 3.28930590e-004 1.60836755e-004 1.34297108e-004 9.26020331e-005 8.26656140e-005 7.87457505e-005 5.67425480e-005 3.81019025e-005 
2.00000000e+000 3.05357143e+001 0.00000000e+000 6.57991012e-004 2.35385989e-004 1.26531593e-004 1.07790066e-004 7.71328491e-005 6.95440420e-005 6.65155141e-005 4.90377701e-005 3.36456377e-005 
2.00000000e+000 2.85714286e+001 0.00000000e+000 2.38136401e-004 1.38333469e-004 8.47168267e-005 7.42793253e-005 5.61775103e-005 5.14353737e-005 4.95088916e-005 3.78642336e-005 2.69305506e-005 
2.00000000e+000 2.62500000e+001 0.00000000e+000 4.86483309e-005 5.16573022e-005 3.90932476e-005 3.60893768e-005 3.03046986e-005 2.86036100e-005 2.78848726e-005 2.29902746e-005 1.76300167e-005 
2.00000000e+000 2.35714286e+001 0.00000000e+000 1.30094870e-005 2.27387250e-005 2.05533039e-005 1.98152921e-005 1.81701105e-005 1.75934627e-005 1.73351288e-005 1.52150939e-005 1.24103763e-005 
2.00000000e+000 2.05357143e+001 0.00000000e+000 3.35480770e-006 9.83711289e-006 1.06604251e-005 1.07415779e-005 1.07701640e-005 1.07008856e-005 1.06577190e-005 9.95970726e-006 8.63171096e-006 
2.00000000e+000 1.71428571e+001 0.00000000e+000 8.06285473e-007 4.07840223e-006 5.34316941e-006 5.63802378e-006 6.20534494e-006 6.33313327e-006 6.37838481e-006 6.35876294e-006 5.85781580e-006 
2.00000000e+000 1.33928571e+001 0.00000000e+000 1.81592617e-007 1.63377732e-006 2.60411224e-006 2.88102117e-006 3.48804914e-006 3.65847248e-006 3.72661281e-006 3.96492170e-006 3.87629159e-006 
2.00000000e+000 9.28571429e+000 0.00000000e+000 3.95324162e-008 6.58023907e-007 1.28355788e-006 1.48965600e-006 1.98409879e-006 2.13821787e-006 2.20258017e-006 2.49715493e-006 2.58111351e-006 
2.00000000e+000 4.82142857e+000 0.00000000e+000 9.28659702e-009 2.95707871e-007 6.97579336e-007 8.44805046e-007 1.22331642e-006 1.34984387e-006 1.40408968e-006 1.68150387e-006 1.82011313e-006 
2.00000000e+000 0.00000000e+000 0.00000000e+000 4.43966752e-009 2.14087672e-007 5.49925012e-007 6.76292812e-007 1.00883298e-006 1.12301329e-006 1.17248771e-006 1.43515481e-006 1.58490764e-006 
2.25000000e+000 3.50000000e+001 0.00000000e+000 1.09536593e-002 8.14555205e-004 2.92582451e-004 2.29152315e-004 1.40682281e-004 1.21833756e-004 1.14643683e-004 7.72320868e-005 4.88433050e-005 
2.25000000e+000 3.48214286e+001 0.00000000e+000 1.24490158e-002 8.64779419e-004 3.04109528e-004 2.37102270e-004 1.44334136e-004 1.24710691e-004 1.17241352e-004 7.85719669e-005 4.94629697e-005 
2.25000000e+000 3.42857143e+001 0.00000000e+000 7.43464594e-003 6.86435480e-004 2.61272751e-004 2.07115715e-004 1.29955425e-004 1.13181682e-004 1.06744605e-004 7.28080254e-005 4.65504602e-005 
2.25000000e+000 3.33928571e+001 0.00000000e+000 7.19531755e-003 6.30314358e-004 2.43703420e-004 1.94130246e-004 1.23026389e-004 1.07446741e-004 1.01452055e-004 6.96481512e-005 4.48039406e-005 
2.25000000e+000 3.21428571e+001 0.00000000e+000 1.86362758e-003 3.80368158e-004 1.76891956e-004 1.46129856e-004 9.87663695e-005 8.76942225e-005 8.33520955e-005 5.93218317e-005 3.93801443e-005 
2.25000000e+000 3.05357143e+001 0.00000000e+000 8.15799341e-004 2.58170382e-004 1.34518434e-004 1.13819576e-004 8.04022212e-005 7.22337640e-005 6.89867007e-005 5.04326121e-005 3.43234616e-005 
2.25000000e+000 2.85714286e+001 0.00000000e+000 2.49802121e-004 1.41405462e-004 8.58747797e-005 7.51378516e-005 5.65784141e-005 5.17336761e-005 4.97678999e-005 3.79306274e-005 2.68774477e-005 
2.25000000e+000 2.62500000e+001 0.00000000e+000 4.31278137e-005 4.76735382e-005 3.65610906e-005 3.38561615e-005 2.86009045e-005 2.70406353e-005 2.63793151e-005 2.18342930e-005 1.68052644e-005 
2.25000000e+000 2.35714286e+001 0.00000000e+000 1.00530406e-005 1.92723783e-005 1.79732372e-005 1.74573637e-005 1.62476567e-005 1.57990318e-005 1.55945898e-005 1.38292757e-005 1.13950708e-005 
2.25000000e+000 2.05357143e+001 0.00000000e+000 2.24479301e-006 7.64019486e-006 8.70813228e-006 8.88109492e-006 9.12356330e-006 9.12850456e-006 9.11824340e-006 8.66825108e-006 7.64160486e-006 
2.25000000e+000 1.71428571e+001 0.00000000e+000 4.62858080e-007 2.89044188e-006 4.06621233e-006 4.36462401e-006 4.97250321e-006 5.12585816e-006 5.18407673e-006 5.29679769e-006 5.00104777e-006 
2.25000000e+000 1.33928571e+001 0.00000000e+000 8.84724037e-008 1.05233327e-006 1.84271364e-006 2.08533104e-006 2.64297465e-006 2.80917329e-006 2.87743004e-006 3.16338847e-006 3.19577219e-006 
2.25000000e+000 9.28571429e+000 0.00000000e+000 1.61351233e-008 3.83211404e-007 8.43056786e-007 1.00723221e-006 1.42261767e-006 1.55940608e-006 1.61779367e-006 1.91244961e-006 2.06068754e-006 
2.25000000e+000 4.82142857e+000 0.00000000e+000 3.12795376e-009 1.55596253e-007 4.27284490e-007 5.36633187e-007 8.35800875e-007 9.41724995e-007 9.88129874e-007 1.24506199e-006 1.41658969e-006 
2.25000000e+000 0.00000000e+000 0.00000000e+000 1.29722699e-009 1.06242682e-007 3.24951441e-007 4.16374714e-007 6.73708774e-007 7.67466465e-007 8.08986431e-007 1.04680819e-006 1.22008753e-006 
2.50000000e+000 3.50000000e+001 0.00000000e+000 2.11072921e-002 1.08061818e-003 3.50586935e-004 2.68703230e-004 1.58529280e-004 1.35856319e-004 1.27297138e-004 8.37788770e-005 5.19106814e-005 
2.50000000e+000 3.48214286e+001 0.00000000e+000 2.42421149e-002 1.15979975e-003 3.67099429e-004 2.79849160e-004 1.63447896e-004 1.39690469e-004 1.30744411e-004 8.55167308e-005 5.26993816e-005 
2.50000000e+000 3.42857143e+001 0.00000000e+000 1.34722590e-002 8.84926844e-004 3.07397104e-004 2.39008989e-004 1.44729553e-004 1.24871677e-004 1.17323323e-004 7.83674047e-005 4.91892626e-005 
2.50000000e+000 3.33928571e+001 0.00000000e+000 1.34899821e-002 8.11054454e-004 2.85147219e-004 2.22774003e-004 1.36315819e-004 1.17971314e-004 1.10980009e-004 7.46682052e-005 4.71918945e-005 