TITLE="3SCB_ER_E_WD175.dat"
VARIABLES= "Density" "Radius" "Height" "0.1053" "0.356" "0.6617" "0.7889" "1.1732" "1.3325" "1.408" "2" "3" 
ZONE T="3D Data" I=11 J=8 K=3 F=POINT
0.00000000e+000 2.18750000e+000 0.00000000e+000 8.95729442e-005 6.24157631e-005 4.13985688e-005 3.72318575e-005 2.98842499e-005 2.78585397e-005 2.70129005e-005 2.14349592e-005 1.54296755e-005 
0.00000000e+000 6.56250000e+000 0.00000000e+000 1.15160686e-004 7.91039395e-005 5.15593934e-005 4.60205947e-005 3.62317940e-005 3.35729724e-005 3.24736079e-005 2.54472591e-005 1.82276007e-005 
0.00000000e+000 1.09375000e+001 0.00000000e+000 1.52614369e-004 1.04181410e-004 6.71674669e-005 5.96394487e-005 4.62691073e-005 4.26612633e-005 4.11782532e-005 3.19142489e-005 2.27579145e-005 
0.00000000e+000 1.53125000e+001 0.00000000e+000 1.91524120e-004 1.29994633e-004 8.31709063e-005 7.36112364e-005 5.66195155e-005 5.20542895e-005 5.01836033e-005 3.86393604e-005 2.74753559e-005 
0.00000000e+000 1.96875000e+001 0.00000000e+000 2.22878471e-004 1.50686518e-004 9.60262641e-005 8.48545186e-005 6.49972694e-005 5.96734134e-005 5.74949501e-005 4.41259929e-005 3.13289488e-005 
0.00000000e+000 2.40625000e+001 0.00000000e+000 2.39591822e-004 1.61692492e-004 1.03029117e-004 9.10448810e-005 6.97369789e-005 6.40215900e-005 6.16826446e-005 4.73294923e-005 3.35969517e-005 
0.00000000e+000 2.84375000e+001 0.00000000e+000 2.45092446e-004 1.65194896e-004 1.05458321e-004 9.32800947e-005 7.16223366e-005 6.58021715e-005 6.34178862e-005 4.87375643e-005 3.46124005e-005 
0.00000000e+000 3.28125000e+001 0.00000000e+000 2.47851223e-004 1.66996577e-004 1.06786106e-004 9.45451631e-005 7.27922807e-005 6.69394259e-005 6.45393451e-005 4.97033328e-005 3.53238853e-005 
2.50000000e-001 2.18750000e+000 0.00000000e+000 2.64790227e-005 3.11400787e-005 2.45538296e-005 2.30004245e-005 2.00120050e-005 1.90876504e-005 1.86849783e-005 1.56675299e-005 1.18982124e-005 
2.50000000e-001 6.56250000e+000 0.00000000e+000 3.53939326e-005 4.02089370e-005 3.09868396e-005 2.87733474e-005 2.45000211e-005 2.32134656e-005 2.26618824e-005 1.87380208e-005 1.41402200e-005 
2.50000000e-001 1.09375000e+001 0.00000000e+000 5.08652764e-005 5.51207431e-005 4.15370100e-005 3.82708590e-005 3.19548733e-005 3.00861093e-005 2.92936777e-005 2.38797273e-005 1.78863833e-005 
2.50000000e-001 1.53125000e+001 0.00000000e+000 7.20542177e-005 7.31105946e-005 5.37312908e-005 4.91548773e-005 4.03878469e-005 3.78381088e-005 3.67653734e-005 2.96305035e-005 2.20300733e-005 
2.50000000e-001 1.96875000e+001 0.00000000e+000 9.88052922e-005 9.21943141e-005 6.59077355e-005 5.98780916e-005 4.84927862e-005 4.52388511e-005 4.38787502e-005 3.50135823e-005 2.58288000e-005 
2.50000000e-001 2.40625000e+001 0.00000000e+000 1.32044409e-004 1.10842249e-004 7.67602764e-005 6.92403527e-005 5.53003180e-005 5.13884583e-005 4.97629773e-005 3.93414010e-005 2.87679525e-005 
2.50000000e-001 2.84375000e+001 0.00000000e+000 1.88957512e-004 1.35989846e-004 8.98648060e-005 8.02324322e-005 6.28421905e-005 5.80828220e-005 5.61202713e-005 4.37913413e-005 3.15902649e-005 
2.50000000e-001 3.28125000e+001 0.00000000e+000 2.43036184e-004 1.58329525e-004 1.01269643e-004 8.97653577e-005 6.93639289e-005 6.38734763e-005 6.16206788e-005 4.76462151e-005 3.40207783e-005 
5.00000000e-001 2.18750000e+000 0.00000000e+000 7.90713500e-006 1.55877027e-005 1.45904416e-005 1.42315379e-005 1.34160083e-005 1.30911572e-005 1.29367228e-005 1.14597729e-005 9.17934111e-006 
5.00000000e-001 6.56250000e+000 0.00000000e+000 1.12951856e-005 2.06998863e-005 1.87590980e-005 1.81023002e-005 1.66395826e-005 1.61133375e-005 1.58735933e-005 1.38351384e-005 1.09899561e-005 
5.00000000e-001 1.09375000e+001 0.00000000e+000 1.83973458e-005 3.00227458e-005 2.61250146e-005 2.49174772e-005 2.22967804e-005 2.14135148e-005 2.10223620e-005 1.79830377e-005 1.41204403e-005 
5.00000000e-001 1.53125000e+001 0.00000000e+000 3.08729931e-005 4.32043759e-005 3.57497500e-005 3.36676308e-005 2.93361777e-005 2.79549648e-005 2.73556417e-005 2.29834384e-005 1.78055952e-005 
5.00000000e-001 1.96875000e+001 0.00000000e+000 5.22653756e-005 6.06790653e-005 4.72989861e-005 4.39187076e-005 3.72021281e-005 3.51667628e-005 3.42987392e-005 2.82817226e-005 2.15625097e-005 
5.00000000e-001 2.40625000e+001 0.00000000e+000 9.00918872e-005 8.38042641e-005 6.08456468e-005 5.55868354e-005 4.56235288e-005 4.27494223e-005 4.15431099e-005 3.35509932e-005 2.50862898e-005 
5.00000000e-001 2.84375000e+001 0.00000000e+000 1.81640648e-004 1.25727443e-004 8.27281679e-005 7.38862500e-005 5.80286396e-005 5.37049948e-005 5.19230333e-005 4.07043872e-005 2.95477015e-005 
5.00000000e-001 3.28125000e+001 0.00000000e+000 2.89843894e-004 1.66727160e-004 1.03120748e-004 9.07854320e-005 6.93285290e-005 6.36571879e-005 6.13428126e-005 4.71622462e-005 3.35415820e-005 
7.50000000e-001 2.18750000e+000 0.00000000e+000 2.38501395e-006 7.82848679e-006 8.68623722e-006 8.81986083e-006 9.00409461e-006 8.98741237e-006 8.96532230e-006 8.38781649e-006 7.08510143e-006 
7.50000000e-001 6.56250000e+000 0.00000000e+000 3.72860092e-006 1.07866597e-005 1.14371120e-005 1.14580082e-005 1.13495126e-005 1.12277514e-005 1.11593117e-005 1.02424065e-005 8.55734162e-006 
7.50000000e-001 1.09375000e+001 0.00000000e+000 7.09351117e-006 1.67815212e-005 1.66904596e-005 1.64441247e-005 1.57095057e-005 1.53743335e-005 1.52125830e-005 1.36261245e-005 1.11955877e-005 
7.50000000e-001 1.53125000e+001 0.00000000e+000 1.44042267e-005 2.65738730e-005 2.43972611e-005 2.35772614e-005 2.16580963e-005 2.09589956e-005 2.06424166e-005 1.80166809e-005 1.44993953e-005 
7.50000000e-001 1.96875000e+001 0.00000000e+000 3.03610186e-005 4.20666655e-005 3.51530725e-005 3.32275309e-005 2.92142965e-005 2.79240709e-005 2.73624439e-005 2.32027489e-005 1.82046023e-005 
7.50000000e-001 2.40625000e+001 0.00000000e+000 6.69928897e-005 6.71793522e-005 5.03319334e-005 4.63772805e-005 3.87879937e-005 3.65585382e-005 3.56163149e-005 2.92151852e-005 2.22159136e-005 
7.50000000e-001 2.84375000e+001 0.00000000e+000 1.85696517e-004 1.22636539e-004 7.95527967e-005 7.08503150e-005 5.53983683e-005 5.12251831e-005 4.95101547e-005 3.87737627e-005 2.81633263e-005 
7.50000000e-001 3.28125000e+001 0.00000000e+000 3.69041511e-004 1.83861438e-004 1.09015520e-004 9.50769503e-005 7.13364725e-005 6.51938579e-005 6.27043297e-005 4.77118907e-005 3.36377677e-005 
1.00000000e+000 2.18750000e+000 0.00000000e+000 7.26497394e-007 3.94457842e-006 5.18092234e-006 5.47474849e-006 6.04978767e-006 6.17620715e-006 6.21894952e-006 6.14354450e-006 5.47123392e-006 
1.00000000e+000 6.56250000e+000 0.00000000e+000 1.26749370e-006 5.68555056e-006 7.02057809e-006 7.29502172e-006 7.77358984e-006 7.85274125e-006 7.87308905e-006 7.60251619e-006 6.67533683e-006 
1.00000000e+000 1.09375000e+001 0.00000000e+000 2.86869804e-006 9.59358230e-006 1.08156222e-005 1.09876740e-005 1.11692391e-005 1.11291522e-005 1.10949832e-005 1.03855570e-005 8.91350352e-006 
1.00000000e+000 1.53125000e+001 0.00000000e+000 7.09496563e-006 1.68643838e-005 1.70088473e-005 1.68270736e-005 1.62206861e-005 1.59207016e-005 1.57735034e-005 1.42598344e-005 1.18896148e-005 
1.00000000e+000 1.96875000e+001 0.00000000e+000 1.85624931e-005 3.02268164e-005 2.68316944e-005 2.57544419e-005 2.33837922e-005 2.25669558e-005 2.22029816e-005 1.92927760e-005 1.55238563e-005 
1.00000000e+000 2.40625000e+001 0.00000000e+000 5.18412345e-005 5.57330667e-005 4.28372350e-005 3.97350692e-005 3.37155068e-005 3.19202743e-005 3.11573063e-005 2.58641864e-005 1.99279005e-005 
1.00000000e+000 2.84375000e+001 0.00000000e+000 1.94866177e-004 1.22700590e-004 7.83702734e-005 6.95475998e-005 5.40153695e-005 4.98588725e-005 4.81559442e-005 3.75773826e-005 2.72271957e-005 
1.00000000e+000 3.28125000e+001 0.00000000e+000 4.91459718e-004 2.07799505e-004 1.17693486e-004 1.01591429e-004 7.47289800e-005 6.79241316e-005 6.51852051e-005 4.89848011e-005 3.41518359e-005 
1.25000000e+000 2.18750000e+000 0.00000000e+000 2.23406102e-007 1.99406905e-006 3.09593476e-006 3.40374614e-006 4.06932764e-006 4.24853186e-006 4.31794405e-006 4.50283417e-006 4.22696827e-006 
1.25000000e+000 6.56250000e+000 0.00000000e+000 4.41725368e-007 3.02884315e-006 4.33756415e-006 4.67070508e-006 5.34587695e-006 5.51219148e-006 5.57385380e-006 5.65749924e-006 5.21657660e-006 
1.25000000e+000 1.09375000e+001 0.00000000e+000 1.20159722e-006 5.59059544e-006 7.09849196e-006 7.42479631e-006 8.00816347e-006 8.11783911e-006 8.15128223e-006 7.95972143e-006 7.12487160e-006 
1.25000000e+000 1.53125000e+001 0.00000000e+000 3.62173330e-006 1.09636101e-005 1.20690617e-005 1.22026383e-005 1.23011058e-005 1.22333922e-005 1.21873395e-005 1.13848700e-005 9.81243045e-006 
1.25000000e+000 1.96875000e+001 0.00000000e+000 1.17082839e-005 2.22643735e-005 2.08953179e-005 2.03375011e-005 1.90074586e-005 1.85021188e-005 1.82699300e-005 1.62255651e-005 1.33545041e-005 
1.25000000e+000 2.40625000e+001 0.00000000e+000 4.10458559e-005 4.72175979e-005 3.71602790e-005 3.46721301e-005 2.97844538e-005 2.83041621e-005 2.76716170e-005 2.31966440e-005 1.80648129e-005 
1.25000000e+000 2.84375000e+001 0.00000000e+000 2.08201047e-004 1.24462727e-004 7.82885247e-005 6.92232002e-005 5.33787177e-005 4.91723462e-005 4.74537125e-005 3.68589166e-005 2.66011317e-005 
1.25000000e+000 3.28125000e+001 0.00000000e+000 6.82400143e-004 2.38924098e-004 1.28792905e-004 1.09960742e-004 7.92034821e-005 7.15753601e-005 6.85259815e-005 5.08057452e-005 3.49847670e-005 
1.50000000e+000 2.18750000e+000 0.00000000e+000 6.93178292e-008 1.01130123e-006 1.85345361e-006 2.11952164e-006 2.74022601e-006 2.92539686e-006 3.00085487e-006 3.30254951e-006 3.26720957e-006 
1.50000000e+000 6.56250000e+000 0.00000000e+000 1.57186284e-007 1.62941286e-006 2.69641598e-006 3.00650827e-006 3.69067886e-006 3.88284354e-006 3.95932262e-006 4.22061359e-006 4.08377035e-006 
1.50000000e+000 1.09375000e+001 0.00000000e+000 5.16630336e-007 3.31095772e-006 4.71179001e-006 5.06810916e-006 5.78618239e-006 5.96320582e-006 6.02930583e-006 6.13243453e-006 5.71679610e-006 
1.50000000e+000 1.53125000e+001 0.00000000e+000 1.89547471e-006 7.26110221e-006 8.68883865e-006 8.96766839e-006 9.42974652e-006 9.49469816e-006 9.50822918e-006 9.16056418e-006 8.14599823e-006 
1.50000000e+000 1.96875000e+001 0.00000000e+000 7.54339032e-006 1.66907719e-005 1.65209847e-005 1.62919264e-005 1.56422867e-005 1.53479932e-005 1.52061840e-005 1.37778426e-005 1.15765285e-005 
1.50000000e+000 2.40625000e+001 0.00000000e+000 3.30086095e-005 4.05569040e-005 3.26607011e-005 3.06439656e-005 2.66257983e-005 2.53878785e-005 2.48558092e-005 2.10160793e-005 1.65172342e-005 
1.50000000e+000 2.84375000e+001 0.00000000e+000 2.26107103e-004 1.27370695e-004 7.88889471e-005 6.95047129e-005 5.32146828e-005 4.89213681e-005 4.71715340e-005 3.64607763e-005 2.61934510e-005 
1.50000000e+000 3.28125000e+001 0.00000000e+000 9.87336921e-004 2.78767126e-004 1.42384581e-004 1.20153150e-004 8.46480410e-005 7.60325870e-005 7.26122288e-005 5.30804751e-005 3.60754697e-005 
1.75000000e+000 2.18750000e+000 0.00000000e+000 2.16869028e-008 5.14514980e-007 1.11165739e-006 1.32191114e-006 1.84726682e-006 2.01631469e-006 2.08746810e-006 2.42386609e-006 2.52655676e-006 
1.75000000e+000 6.56250000e+000 0.00000000e+000 5.69179749e-008 8.84431625e-007 1.68592836e-006 1.94511329e-006 2.55750005e-006 2.74436544e-006 2.82156096e-006 3.15631487e-006 3.20246407e-006 
1.75000000e+000 1.09375000e+001 0.00000000e+000 2.26594163e-007 1.98762260e-006 3.15880998e-006 3.49069064e-006 4.21023784e-006 4.40889468e-006 4.48763538e-006 4.74776017e-006 4.60354916e-006 
1.75000000e+000 1.53125000e+001 0.00000000e+000 1.01056406e-006 4.87905452e-006 6.33000957e-006 6.66365102e-006 7.29578900e-006 7.43332037e-006 7.48085827e-006 7.42210017e-006 6.79901473e-006 
1.75000000e+000 1.96875000e+001 0.00000000e+000 4.93710822e-006 1.26760056e-005 1.32149902e-005 1.31973050e-005 1.30013251e-005 1.28531289e-005 1.27746591e-005 1.17943295e-005 1.01021172e-005 
1.75000000e+000 2.40625000e+001 0.00000000e+000 2.68598115e-005 3.51750859e-005 2.89756016e-005 2.73349016e-005 2.40131401e-005 2.29699127e-005 2.25186168e-005 1.91920514e-005 1.52082422e-005 
1.75000000e+000 2.84375000e+001 0.00000000e+000 2.49669218e-004 1.31222495e-004 7.99696141e-005 7.02034387e-005 5.33705324e-005 4.89657987e-005 4.71747614e-005 3.62848229e-005 2.59427954e-005 
1.75000000e+000 3.28125000e+001 0.00000000e+000 1.48772210e-003 3.29772532e-004 1.58789840e-004 1.32326942e-004 9.10593589e-005 8.12720106e-005 7.74139521e-005 5.57644871e-005 3.73877707e-005 
2.00000000e+000 2.18750000e+000 0.00000000e+000 6.83655465e-009 2.62579385e-007 6.67961494e-007 8.25743044e-007 1.24666611e-006 1.39109813e-006 1.45344995e-006 1.78017675e-006 1.95472150e-006 
2.00000000e+000 6.56250000e+000 0.00000000e+000 2.09142710e-008 4.83967902e-007 1.05984525e-006 1.26445795e-006 1.77858960e-006 1.94599242e-006 2.01700291e-006 2.36595430e-006 2.51557460e-006 
2.00000000e+000 1.09375000e+001 0.00000000e+000 1.00949250e-007 1.20683830e-006 2.13621330e-006 2.42346733e-006 3.08314149e-006 3.27904374e-006 3.35930523e-006 3.69249445e-006 3.71974734e-006 
2.00000000e+000 1.53125000e+001 0.00000000e+000 5.46630918e-007 3.31627816e-006 4.65680373e-006 4.99744777e-006 5.68962265e-006 5.86325231e-006 5.92894180e-006 6.05064338e-006 5.70253232e-006 
2.00000000e+000 1.96875000e+001 0.00000000e+000 3.27156647e-006 9.72332126e-006 1.06668649e-005 1.07847803e-005 1.08933153e-005 1.08475715e-005 1.08141285e-005 1.01651926e-005 8.86630372e-006 
2.00000000e+000 2.40625000e+001 0.00000000e+000 2.20656134e-005 3.07308207e-005 2.58858667e-005 2.45518441e-005 2.18025460e-005 2.09203092e-005 2.05358997e-005 1.76362287e-005 1.40830752e-005 
2.00000000e+000 2.84375000e+001 0.00000000e+000 2.80612534e-004 1.35969994e-004 8.14327211e-005 7.12223585e-005 5.37594716e-005 4.92238191e-005 4.73838955e-005 3.62691424e-005 2.58077351e-005 
2.00000000e+000 3.28125000e+001 0.00000000e+000 2.33218246e-003 3.95413640e-004 1.78518876e-004 1.46772263e-004 9.85027157e-005 8.73269206e-005 8.29539909e-005 5.88449833e-005 3.89021633e-005 
2.25000000e+000 2.18750000e+000 0.00000000e+000 2.16993047e-009 1.34408876e-007 4.02079979e-007 5.16605016e-007 8.42257724e-007 9.60684841e-007 1.01294007e-006 1.30831394e-006 1.51301812e-006 
2.25000000e+000 6.56250000e+000 0.00000000e+000 7.78066266e-009 2.66778077e-007 6.69634014e-007 8.25684852e-007 1.24111778e-006 1.38415928e-006 1.44615676e-006 1.77754148e-006 1.97925553e-006 
2.25000000e+000 1.09375000e+001 0.00000000e+000 4.55447628e-008 7.39808742e-007 1.45570973e-006 1.69442253e-006 2.27083952e-006 2.45189181e-006 2.52781996e-006 2.88392384e-006 3.01530238e-006 
2.25000000e+000 1.53125000e+001 0.00000000e+000 2.99179858e-007 2.27508372e-006 3.45372733e-006 3.77689900e-006 4.46726014e-006 4.65483329e-006 4.72882071e-006 4.95951537e-006 4.80407327e-006 
2.25000000e+000 1.96875000e+001 0.00000000e+000 2.19002692e-006 7.51775579e-006 8.67265408e-006 8.87560107e-006 9.18709098e-006 9.21347825e-006 9.21225291e-006 8.81137515e-006 7.82046234e-006 
2.25000000e+000 2.40625000e+001 0.00000000e+000 1.82733270e-005 2.70039606e-005 2.32508258e-005 2.21701887e-005 1.98990373e-005 1.91524645e-005 1.88245506e-005 1.62875071e-005 1.31022168e-005 
2.25000000e+000 2.84375000e+001 0.00000000e+000 3.21470680e-004 1.41645666e-004 8.32336732e-005 7.25124108e-005 5.43316154e-005 4.96470342e-005 4.77513687e-005 3.63741949e-005 2.57600435e-005 
2.25000000e+000 3.28125000e+001 0.00000000e+000 3.79744831e-003 4.80514146e-004 2.02264533e-004 1.63894465e-004 1.07093410e-004 9.42708067e-005 8.92919543e-005 6.23305158e-005 4.06105735e-005 
2.50000000e+000 2.18750000e+000 0.00000000e+000 6.92979701e-010 6.90004982e-008 2.42460271e-007 3.23693646e-007 5.69653020e-007 6.64087045e-007 7.06591442e-007 9.62174946e-007 1.17167273e-006 
2.50000000e+000 6.56250000e+000 0.00000000e+000 2.92540927e-009 1.48031642e-007 4.25078318e-007 5.41439242e-007 8.68866304e-007 9.87447771e-007 1.03981960e-006 1.33839826e-006 1.55976501e-006 
2.50000000e+000 1.09375000e+001 0.00000000e+000 2.07643460e-008 4.57206674e-007 9.98618781e-007 1.19208608e-006 1.68127813e-006 1.84236715e-006 1.91119057e-006 2.26122323e-006 2.45167225e-006 
2.50000000e+000 1.53125000e+001 0.00000000e+000 1.65366735e-007 1.57280155e-006 2.57889697e-006 2.87308873e-006 3.52802085e-006 3.71621027e-006 3.79240085e-006 4.08475879e-006 4.06337602e-006 
2.50000000e+000 1.96875000e+001 0.00000000e+000 1.47866373e-006 5.85040955e-006 7.09309756e-006 7.34663381e-006 7.79018556e-006 7.86706945e-006 7.88886092e-006 7.67495781e-006 6.92776037e-006 
2.50000000e+000 2.40625000e+001 0.00000000e+000 1.52385092e-005 2.38428820e-005 2.09749861e-005 2.01053649e-005 1.82375482e-005 1.76067037e-005 1.73271360e-005 1.51026608e-005 1.22367376e-005 
2.50000000e+000 2.84375000e+001 0.00000000e+000 3.75899962e-004 1.48334764e-004 8.53573002e-005 7.40511395e-005 5.50584087e-005 5.02067184e-005 4.82485606e-005 3.65744717e-005 2.57803234e-005 
2.50000000e+000 3.28125000e+001 0.00000000e+000 6.40867441e-003 5.91763432e-004 2.30926367e-004 1.84219199e-004 1.16989650e-004 1.02209804e-004 9.65166885e-005 6.62451537e-005 4.25130519e-005 
0.00000000e+000 2.18750000e+000 1.00000000e+001 9.64903267e-005 6.77519832e-005 4.42129123e-005 3.94714930e-005 3.11214618e-005 2.88600512e-005 2.79252358e-005 2.19347672e-005 1.57352118e-005 
0.00000000e+000 6.56250000e+000 1.00000000e+001 1.10214680e-004 7.66012846e-005 4.96918324e-005 4.42419236e-005 3.46140587e-005 3.20150296e-005 3.09440079e-005 2.41645164e-005 1.72893323e-005 
0.00000000e+000 1.09375000e+001 1.00000000e+001 1.30982652e-004 9.02717298e-005 5.83012293e-005 5.17967098e-005 4.02535585e-005 3.71388075e-005 3.58579592e-005 2.78358298e-005 1.98607178e-005 
0.00000000e+000 1.53125000e+001 1.00000000e+001 1.51106790e-004 1.03421944e-004 6.65441511e-005 5.90326263e-005 4.56828812e-005 4.20833158e-005 4.06048780e-005 3.14018614e-005 2.23620356e-005 
0.00000000e+000 1.96875000e+001 1.00000000e+001 1.67252721e-004 1.13954095e-004 7.31414209e-005 6.48300022e-005 5.00558230e-005 4.60749913e-005 4.44409907e-005 3.43006965e-005 2.43998093e-005 
0.00000000e+000 2.40625000e+001 1.00000000e+001 1.78818554e-004 1.21642609e-004 7.79613280e-005 6.90708900e-005 5.32773311e-005 4.90257388e-005 4.72812900e-005 3.64691320e-005 2.59334883e-005 
0.00000000e+000 2.84375000e+001 1.00000000e+001 1.87577775e-004 1.27531701e-004 8.16197636e-005 7.22810093e-005 5.57102018e-005 5.12562210e-005 4.94296682e-005 3.81187020e-005 2.71029476e-005 
0.00000000e+000 3.28125000e+001 1.00000000e+001 2.01145434e-004 1.36662610e-004 8.71555454e-005 7.70867629e-005 5.92567731e-005 5.44815622e-005 5.25260990e-005 4.04577019e-005 2.87514401e-005 
2.50000000e-001 2.18750000e+000 1.00000000e+001 2.79908545e-005 3.34417564e-005 2.60119676e-005 2.42026538e-005 2.07108474e-005 1.96576896e-005 1.92053644e-005 1.59545101e-005 1.20845709e-005 
2.50000000e-001 6.56250000e+000 1.00000000e+001 3.32551830e-005 3.85239391e-005 2.96204185e-005 2.74510069e-005 2.32550835e-005 2.20008627e-005 2.14654147e-005 1.77021231e-005 1.33549181e-005 
2.50000000e-001 1.09375000e+001 1.00000000e+001 4.27257285e-005 4.71452077e-005 3.56893854e-005 3.29243009e-005 2.75762604e-005 2.59911112e-005 2.53181379e-005 2.06938700e-005 1.55251569e-005 
2.50000000e-001 1.53125000e+001 1.00000000e+001 5.51465037e-005 5.70761235e-005 4.23585592e-005 3.88807039e-005 3.22088562e-005 3.02545449e-005 2.94290714e-005 2.38591051e-005 1.77920561e-005 
2.50000000e-001 1.96875000e+001 1.00000000e+001 7.08853381e-005 6.77827885e-005 4.91122487e-005 4.48265749e-005 3.67131971e-005 3.43713482e-005 3.33873626e-005 2.68550413e-005 1.98919939e-005 
2.50000000e-001 2.40625000e+001 1.00000000e+001 9.28026493e-005 8.02988263e-005 5.64024864e-005 5.11169223e-005 4.12944733e-005 3.85133076e-005 3.73520920e-005 2.97773439e-005 2.18768684e-005 
2.50000000e-001 2.84375000e+001 1.00000000e+001 1.38166512e-004 1.01771971e-004 6.78123772e-005 6.07091495e-005 4.78909236e-005 4.43725136e-005 4.29184362e-005 3.36925770e-005 2.43954144e-005 
2.50000000e-001 3.28125000e+001 1.00000000e+001 1.89636991e-004 1.26405663e-004 8.10036658e-005 7.18095919e-005 5.55364755e-005 5.11695736e-005 4.93790628e-005 3.82631429e-005 2.73756912e-005 
5.00000000e-001 2.18750000e+000 1.00000000e+001 8.20573268e-006 1.65631988e-005 1.53333875e-005 1.48647572e-005 1.37985241e-005 1.34032423e-005 1.32211257e-005 1.16128303e-005 9.28536711e-006 
5.00000000e-001 6.56250000e+000 1.00000000e+001 1.04430501e-005 1.96375868e-005 1.77928125e-005 1.71450037e-005 1.56955857e-005 1.51810827e-005 1.49483313e-005 1.30047453e-005 1.03359987e-005 
5.00000000e-001 1.09375000e+001 1.00000000e+001 1.52326670e-005 2.54140996e-005 2.22522816e-005 2.12596880e-005 1.91015884e-005 1.83700966e-005 1.80452352e-005 1.54904743e-005 1.21940005e-005 
5.00000000e-001 1.53125000e+001 1.00000000e+001 2.32510685e-005 3.32810937e-005 2.78565595e-005 2.63359645e-005 2.31652777e-005 2.21414874e-005 2.16944108e-005 1.83557918e-005 1.42796975e-005 
5.00000000e-001 1.96875000e+001 1.00000000e+001 3.66472510e-005 4.37596487e-005 3.46592895e-005 3.23577258e-005 2.77709092e-005 2.63608146e-005 2.57549664e-005 2.14410649e-005 1.64412807e-005 
5.00000000e-001 2.40625000e+001 1.00000000e+001 6.13864927e-005 5.91720487e-005 4.37261847e-005 4.01789647e-005 3.34409631e-005 3.14742896e-005 3.06436178e-005 2.50090894e-005 1.88275548e-005 
5.00000000e-001 2.84375000e+001 1.00000000e+001 1.31132213e-004 9.26493669e-005 6.14830068e-005 5.50766710e-005 4.36065075e-005 4.04717784e-005 3.91769049e-005 3.09339394e-005 2.25683268e-005 
5.00000000e-001 3.28125000e+001 1.00000000e+001 2.21930427e-004 1.31001606e-004 8.13256303e-005 7.16429853e-005 5.48252304e-005 5.03899238e-005 4.85807504e-005 3.74743443e-005 2.67384496e-005 
7.50000000e-001 2.18750000e+000 1.00000000e+001 2.43083559e-006 8.23161285e-006 9.05613975e-006 9.14465940e-006 9.20373432e-006 9.14806232e-006 9.11033490e-006 8.45856663e-006 7.13799272e-006 
7.50000000e-001 6.56250000e+000 1.00000000e+001 3.39848085e-006 1.01398660e-005 1.07681415e-005 1.07768638e-005 1.06411421e-005 1.05173784e-005 1.04497092e-005 9.58050603e-006 8.01496319e-006 
7.50000000e-001 1.09375000e+001 1.00000000e+001 5.81650092e-006 1.40906657e-005 1.41115868e-005 1.39301232e-005 1.33704680e-005 1.31060645e-005 1.29771502e-005 1.16722589e-005 9.62189951e-006 
7.50000000e-001 1.53125000e+001 1.00000000e+001 1.07580351e-005 2.02871616e-005 1.88420654e-005 1.82820638e-005 1.69621147e-005 1.64680077e-005 1.62416060e-005 1.42860213e-005 1.15549290e-005 
7.50000000e-001 1.96875000e+001 1.00000000e+001 2.10306586e-005 2.99533993e-005 2.54403165e-005 2.41837290e-005 2.15609559e-005 2.07012282e-005 2.03232165e-005 1.74165993e-005 1.37592080e-005 
7.50000000e-001 2.40625000e+001 1.00000000e+001 4.48269744e-005 4.66179168e-005 3.55802752e-005 3.29887921e-005 2.80121349e-005 2.65318774e-005 2.59018101e-005 2.14983620e-005 1.64833427e-005 
7.50000000e-001 2.84375000e+001 1.00000000e+001 1.33710871e-004 8.97200267e-005 5.86107846e-005 5.23426286e-005 4.12481965e-005 3.82493739e-005 3.70147309e-005 2.92042570e-005 2.13289748e-005 
7.50000000e-001 3.28125000e+001 1.00000000e+001 2.80927081e-004 1.42939949e-004 8.51036746e-005 7.42864803e-005 5.58890587e-005 5.11383526e-005 4.92135773e-005 3.75952324e-005 2.66107283e-005 
1.00000000e+000 2.18750000e+000 1.00000000e+001 7.27525694e-007 4.10493578e-006 5.35903925e-006 5.63496538e-006 6.14598934e-006 6.25014264e-006 6.28376639e-006 6.16537426e-006 5.48987230e-006 
1.00000000e+000 6.56250000e+000 1.00000000e+001 1.14037518e-006 5.29928352e-006 6.56370966e-006 6.81591125e-006 7.24597813e-006 7.31493550e-006 7.33219263e-006 7.07720987e-006 6.22696197e-006 
1.00000000e+000 1.09375000e+001 1.00000000e+001 2.33500456e-006 8.00417664e-006 9.08756275e-006 9.25066123e-006 9.45075364e-006 9.43318932e-006 9.41136673e-006 8.85066909e-006 7.62615794e-006 
1.00000000e+000 1.53125000e+001 1.00000000e+001 5.27151329e-006 1.27982997e-005 1.30482930e-005 1.29594500e-005 1.26178008e-005 1.24257446e-005 1.23283691e-005 1.12365322e-005 9.42165987e-006 
1.00000000e+000 1.96875000e+001 1.00000000e+001 1.27578024e-005 2.13403123e-005 1.92404830e-005 1.85719011e-005 1.71011025e-005 1.65798445e-005 1.63443112e-005 1.43602134e-005 1.16430457e-005 
1.00000000e+000 2.40625000e+001 1.00000000e+001 3.42525799e-005 3.82003656e-005 2.99099862e-005 2.79193420e-005 2.40628268e-005 2.28984710e-005 2.23998659e-005 1.88283477e-005 1.46400730e-005 
1.00000000e+000 2.84375000e+001 1.00000000e+001 1.40555224e-004 8.94769788e-005 5.74570905e-005 5.11091999e-005 3.99797191e-005 3.70026738e-005 3.57813121e-005 2.81229870e-005 2.04873396e-005 
1.00000000e+000 3.28125000e+001 1.00000000e+001 3.77026228e-004 1.60508670e-004 9.12031873e-005 7.87933950e-005 5.81293955e-005 5.29056982e-005 5.08038229e-005 3.83419136e-005 2.68480498e-005 
1.25000000e+000 2.18750000e+000 1.00000000e+001 2.19903355e-007 2.05399522e-006 3.17736732e-006 3.47798357e-006 4.10880224e-006 4.27456447e-006 4.33835523e-006 4.49703132e-006 4.22432603e-006 
1.25000000e+000 6.56250000e+000 1.00000000e+001 3.92602861e-007 2.80059796e-006 4.02827953e-006 4.33628248e-006 4.95498421e-006 5.10694655e-006 5.16339609e-006 5.24198870e-006 4.84688188e-006 
1.25000000e+000 1.09375000e+001 1.00000000e+001 9.71668173e-007 4.64059315e-006 5.93282814e-006 6.21785462e-006 6.74069006e-006 6.84541710e-006 6.87912313e-006 6.75116842e-006 6.07015375e-006 
1.25000000e+000 1.53125000e+001 1.00000000e+001 2.67930109e-006 8.28657975e-006 9.21220177e-006 9.34850475e-006 9.51569725e-006 9.49469196e-006 9.47242975e-006 8.92253559e-006 7.73650770e-006 
1.25000000e+000 1.96875000e+001 1.00000000e+001 7.99847113e-006 1.56245274e-005 1.48807797e-005 1.45620824e-005 1.37992261e-005 1.34942990e-005 1.33511344e-005 1.19915821e-005 9.94904205e-006 
1.25000000e+000 2.40625000e+001 1.00000000e+001 2.68542216e-005 3.20608589e-005 2.56978988e-005 2.41281920e-005 2.10554697e-005 2.01134064e-005 1.97076440e-005 1.67343950e-005 1.31585128e-005 
1.25000000e+000 2.84375000e+001 1.00000000e+001 1.50890097e-004 9.06650840e-005 5.72427701e-005 5.07142811e-005 3.93575569e-005 3.63465539e-005 3.51150870e-005 2.74606928e-005 1.99191180e-005 
1.25000000e+000 3.28125000e+001 1.00000000e+001 5.35433781e-004 1.84095606e-004 9.93033743e-005 8.48343557e-005 6.12727900e-005 5.54450052e-005 5.31162729e-005 3.95547839e-005 2.73599334e-005 
1.50000000e+000 2.18750000e+000 1.00000000e+001 6.70896387e-008 1.03121337e-006 1.88747448e-006 2.15017627e-006 2.75000501e-006 2.92640400e-006 2.99811991e-006 3.28243336e-006 3.25208251e-006 
1.50000000e+000 6.56250000e+000 1.00000000e+001 1.38064188e-007 1.49526637e-006 2.48820316e-006 2.77425666e-006 3.40216461e-006 3.57852114e-006 3.64886018e-006 3.89278702e-006 3.77958843e-006 
1.50000000e+000 1.09375000e+001 1.00000000e+001 4.15036655e-007 2.73655503e-006 3.92016940e-006 4.22463673e-006 4.84759399e-006 5.00513867e-006 5.06478379e-006 5.17852067e-006 4.85127124e-006 
1.50000000e+000 1.53125000e+001 1.00000000e+001 1.39610742e-006 5.47182120e-006 6.60652415e-006 6.84181373e-006 7.26111693e-006 7.33478886e-006 7.35553549e-006 7.14561338e-006 6.39386352e-006 
1.50000000e+000 1.96875000e+001 1.00000000e+001 5.12605909e-006 1.16597954e-005 1.17030858e-005 1.16007536e-005 1.12889582e-005 1.11269245e-005 1.10455653e-005 1.01214546e-005 8.57427485e-006 
1.50000000e+000 2.40625000e+001 1.00000000e+001 2.14204428e-005 2.73300767e-005 2.24113364e-005 2.11587352e-005 1.86752165e-005 1.79003000e-005 1.75644116e-005 1.50457179e-005 1.19427126e-005 
1.50000000e+000 2.84375000e+001 1.00000000e+001 1.65112411e-004 9.28142254e-005 5.76057177e-005 5.08342513e-005 3.91413395e-005 3.60658498e-005 3.48114593e-005 2.70772814e-005 1.95423164e-005 
1.50000000e+000 3.28125000e+001 1.00000000e+001 8.04297169e-004 2.15171923e-004 1.09476148e-004 9.23848197e-005 6.52189099e-005 5.86527560e-005 5.60477315e-005 4.11483229e-005 2.80907414e-005 
1.75000000e+000 2.18750000e+000 1.00000000e+001 2.06444929e-008 5.19432920e-007 1.12336929e-006 1.33145766e-006 1.84266004e-006 2.00547009e-006 2.07391450e-006 2.39755786e-006 2.50480817e-006 
1.75000000e+000 6.56250000e+000 1.00000000e+001 4.94119686e-008 8.05759497e-007 1.54622793e-006 1.78433482e-006 2.34510311e-006 2.51637999e-006 2.58727783e-006 2.89816565e-006 2.95260444e-006 
1.75000000e+000 1.09375000e+001 1.00000000e+001 1.80770773e-007 1.63653920e-006 2.61762845e-006 2.89784893e-006 3.51237620e-006 3.68490901e-006 3.75383792e-006 3.99295825e-006 3.89208942e-006 
1.75000000e+000 1.53125000e+001 1.00000000e+001 7.40786432e-007 3.66781150e-006 4.79822007e-006 5.06706770e-006 5.59646244e-006 5.71978861e-006 5.76421628e-006 5.76592245e-006 5.31534280e-006 
1.75000000e+000 1.96875000e+001 1.00000000e+001 3.33836343e-006 8.82225529e-006 9.32119273e-006 9.35508682e-006 9.33714053e-006 9.27183177e-006 9.23285747e-006 8.61999517e-006 7.44428179e-006 
1.75000000e+000 2.40625000e+001 1.00000000e+001 1.73082534e-005 2.35523648e-005 1.97535718e-005 1.87504538e-005 1.67314704e-005 1.60885134e-005 1.58078131e-005 1.36500900e-005 1.09257864e-005 
1.75000000e+000 2.84375000e+001 1.00000000e+001 1.84230565e-004 9.57556740e-005 5.83727466e-005 5.13064469e-005 3.91979302e-005 3.60379797e-005 3.47524797e-005 2.68860630e-005 1.93023677e-005 
1.75000000e+000 3.28125000e+001 1.00000000e+001 1.27591244e-003 2.56133349e-004 1.22026505e-004 1.01594908e-004 6.99662038e-005 6.25082831e-005 5.95717523e-005 4.30823439e-005 2.90076284e-005 
2.00000000e+000 2.18750000e+000 1.00000000e+001 6.40225975e-009 2.62487262e-007 6.69859835e-007 8.25814124e-007 1.23608554e-006 1.37573947e-006 1.43598348e-006 1.75244719e-006 1.93017188e-006 
2.00000000e+000 6.56250000e+000 1.00000000e+001 1.79441179e-008 4.37837142e-007 9.66283825e-007 1.15336734e-006 1.62249726e-006 1.77547502e-006 1.84048998e-006 2.16296217e-006 2.31060781e-006 