TITLE="3SCB_ER_E_WD140.dat"
VARIABLES= "Density" "Radius" "Height" "0.1053" "0.356" "0.6617" "0.7889" "1.1732" "1.3325" "1.408" "2" "3" 
ZONE T="3D Data" I=11 J=8 K=3 F=POINT
0.00000000e+000 2.18750000e+000 0.00000000e+000 1.27122561e-004 8.69353080e-005 5.76545999e-005 5.18085919e-005 4.13565508e-005 3.84527680e-005 3.72415485e-005 2.93486211e-005 2.10691652e-005 
0.00000000e+000 6.56250000e+000 0.00000000e+000 1.49607887e-004 1.02345664e-004 6.68150713e-005 5.96502116e-005 4.69048084e-005 4.34238867e-005 4.19837531e-005 3.28118997e-005 2.34926575e-005 
0.00000000e+000 1.09375000e+001 0.00000000e+000 1.86579412e-004 1.26980010e-004 8.17047508e-005 7.24806793e-005 5.60956033e-005 5.16798084e-005 4.98663152e-005 3.85802205e-005 2.75099441e-005 
0.00000000e+000 1.53125000e+001 0.00000000e+000 2.16355876e-004 1.46629307e-004 9.37737634e-005 8.29744209e-005 6.37760579e-005 5.86202769e-005 5.65082978e-005 4.34909186e-005 3.09339596e-005 
0.00000000e+000 1.96875000e+001 0.00000000e+000 2.31014872e-004 1.56329009e-004 9.98464708e-005 8.83008523e-005 6.77650759e-005 6.22510157e-005 5.99931079e-005 4.61048689e-005 3.27632250e-005 
0.00000000e+000 2.40625000e+001 0.00000000e+000 2.32748654e-004 1.57327575e-004 1.00631879e-004 8.90622834e-005 6.84734039e-005 6.29342392e-005 6.06638823e-005 4.66625925e-005 3.31591241e-005 
0.00000000e+000 2.84375000e+001 0.00000000e+000 2.29731087e-004 1.55200105e-004 9.94688436e-005 8.81286754e-005 6.79537917e-005 6.25153967e-005 6.02835516e-005 4.64607479e-005 3.30298407e-005 
0.00000000e+000 3.28125000e+001 0.00000000e+000 2.36940219e-004 1.60057321e-004 1.02329770e-004 9.06048742e-005 6.98085858e-005 6.42201855e-005 6.19286077e-005 4.77446790e-005 3.39489032e-005 
2.50000000e-001 2.18750000e+000 0.00000000e+000 3.76051538e-005 4.33913284e-005 3.42063185e-005 3.20145691e-005 2.77004771e-005 2.63516533e-005 2.57650965e-005 2.14550590e-005 1.62488402e-005 
2.50000000e-001 6.56250000e+000 0.00000000e+000 4.61018159e-005 5.20955436e-005 4.01949022e-005 3.73277329e-005 3.17383255e-005 3.00430344e-005 2.93157800e-005 2.41720976e-005 1.82312358e-005 
2.50000000e-001 1.09375000e+001 0.00000000e+000 6.25057274e-005 6.73407782e-005 5.06051416e-005 4.65745430e-005 3.87806044e-005 3.64797731e-005 3.55055041e-005 2.88870558e-005 2.16323007e-005 
2.50000000e-001 1.53125000e+001 0.00000000e+000 8.19445351e-005 8.26729245e-005 6.06725081e-005 5.54790138e-005 4.55337461e-005 4.26449255e-005 4.14303015e-005 3.33688484e-005 2.48122052e-005 
2.50000000e-001 1.96875000e+001 0.00000000e+000 1.03401044e-004 9.59059649e-005 6.86150800e-005 6.23704350e-005 5.05833929e-005 4.72116293e-005 4.58014220e-005 3.65886391e-005 2.70103983e-005 
2.50000000e-001 2.40625000e+001 0.00000000e+000 1.29346879e-004 1.07985008e-004 7.49649386e-005 6.77089075e-005 5.42616206e-005 5.04782472e-005 4.89036727e-005 3.87534552e-005 2.83669271e-005 
2.50000000e-001 2.84375000e+001 0.00000000e+000 1.75426803e-004 1.26662233e-004 8.41236846e-005 7.52598490e-005 5.92495454e-005 5.48509746e-005 5.30332498e-005 4.15296492e-005 3.00101030e-005 
2.50000000e-001 3.28125000e+001 0.00000000e+000 2.29994894e-004 1.50617527e-004 9.64236172e-005 8.55004937e-005 6.61610366e-005 6.09607583e-005 5.88266765e-005 4.55616119e-005 3.25677003e-005 
5.00000000e-001 2.18750000e+000 0.00000000e+000 1.12428607e-005 2.17323352e-005 2.03341989e-005 1.98159755e-005 1.85750997e-005 1.80772995e-005 1.78426410e-005 1.56955941e-005 1.25374061e-005 
5.00000000e-001 6.56250000e+000 0.00000000e+000 1.47683141e-005 2.68663795e-005 2.43628980e-005 2.35092864e-005 2.15728256e-005 2.08691266e-005 2.05486230e-005 1.78569406e-005 1.41753906e-005 
5.00000000e-001 1.09375000e+001 0.00000000e+000 2.27981884e-005 3.68109700e-005 3.19029290e-005 3.03862095e-005 2.71004286e-005 2.59996077e-005 2.55135103e-005 2.17753262e-005 1.70900800e-005 
5.00000000e-001 1.53125000e+001 0.00000000e+000 3.55985287e-005 4.91287999e-005 4.05062989e-005 3.81116997e-005 3.31434281e-005 3.15652997e-005 3.08815791e-005 2.59165874e-005 2.00721057e-005 
5.00000000e-001 1.96875000e+001 0.00000000e+000 5.58493270e-005 6.36777660e-005 4.94961766e-005 4.59475665e-005 3.89219057e-005 3.67966985e-005 3.58904836e-005 2.96045449e-005 2.25734948e-005 
5.00000000e-001 2.40625000e+001 0.00000000e+000 9.00843883e-005 8.24140395e-005 5.97469058e-005 5.46065016e-005 4.49001544e-005 4.21001792e-005 4.09239568e-005 3.31000220e-005 2.47566473e-005 
5.00000000e-001 2.84375000e+001 0.00000000e+000 1.68751493e-004 1.17024147e-004 7.73080654e-005 6.91705958e-005 5.45841955e-005 5.05954274e-005 4.89482880e-005 3.85050245e-005 2.79983327e-005 
5.00000000e-001 3.28125000e+001 0.00000000e+000 2.72271549e-004 1.58077225e-004 9.79220322e-005 8.62474992e-005 6.59637096e-005 6.06056270e-005 5.84186663e-005 4.49915612e-005 3.20348316e-005 
7.50000000e-001 2.18750000e+000 0.00000000e+000 3.39664367e-006 1.09219424e-005 1.21113877e-005 1.22858031e-005 1.24702525e-005 1.24137804e-005 1.23682790e-005 1.14903048e-005 9.67839106e-006 
7.50000000e-001 6.56250000e+000 0.00000000e+000 4.89782862e-006 1.40290294e-005 1.48745747e-005 1.48989551e-005 1.47279536e-005 1.45537103e-005 1.44574449e-005 1.32278631e-005 1.10427730e-005 
7.50000000e-001 1.09375000e+001 0.00000000e+000 8.87738902e-006 2.06692704e-005 2.04428086e-005 2.01061486e-005 1.91312635e-005 1.86999359e-005 1.84936763e-005 1.65205307e-005 1.35626635e-005 
7.50000000e-001 1.53125000e+001 0.00000000e+000 1.68698011e-005 3.04448858e-005 2.77770147e-005 2.68023052e-005 2.45441217e-005 2.37311887e-005 2.33644884e-005 2.03554478e-005 1.63673615e-005 
7.50000000e-001 1.96875000e+001 0.00000000e+000 3.31281854e-005 4.46547257e-005 3.70630844e-005 3.49912792e-005 3.07101306e-005 2.93427694e-005 2.87484876e-005 2.43598202e-005 1.90967046e-005 
7.50000000e-001 2.40625000e+001 0.00000000e+000 6.82187868e-005 6.68363888e-005 4.98190274e-005 4.58810592e-005 3.83697391e-005 3.61696885e-005 3.52399641e-005 2.89142878e-005 2.19704183e-005 
7.50000000e-001 2.84375000e+001 0.00000000e+000 1.72198421e-004 1.14216781e-004 7.43587371e-005 6.63320842e-005 5.20897471e-005 4.82338181e-005 4.66464412e-005 3.66453067e-005 2.66541645e-005 
7.50000000e-001 3.28125000e+001 0.00000000e+000 3.42446138e-004 1.73642671e-004 1.03304027e-004 9.01633397e-005 6.77793323e-005 6.19854836e-005 5.96363383e-005 4.54573482e-005 3.20837087e-005 
1.00000000e+000 2.18750000e+000 0.00000000e+000 1.03669791e-006 5.50773641e-006 7.22775741e-006 7.62973706e-006 8.38143599e-006 8.53332942e-006 8.58185960e-006 8.41764634e-006 7.47495492e-006 
1.00000000e+000 6.56250000e+000 0.00000000e+000 1.67360083e-006 7.41183719e-006 9.14514360e-006 9.49912012e-006 1.00980371e-005 1.01884555e-005 1.02091046e-005 9.82513959e-006 8.61852335e-006 
1.00000000e+000 1.09375000e+001 0.00000000e+000 3.62615713e-006 1.18767698e-005 1.32935040e-005 1.34763047e-005 1.36336610e-005 1.35649528e-005 1.35151326e-005 1.26107345e-005 1.08100607e-005 
1.00000000e+000 1.53125000e+001 0.00000000e+000 8.43316232e-006 1.94835343e-005 1.94763781e-005 1.92263097e-005 1.84522034e-005 1.80886935e-005 1.79124905e-005 1.61508993e-005 1.34451885e-005 
1.00000000e+000 1.96875000e+001 0.00000000e+000 2.06229236e-005 3.24736906e-005 2.85338568e-005 2.73310075e-005 2.47251097e-005 2.38397866e-005 2.34467952e-005 2.03331561e-005 1.63295664e-005 
1.00000000e+000 2.40625000e+001 0.00000000e+000 5.35687744e-005 5.60726821e-005 4.27677753e-005 3.96196278e-005 3.35579264e-005 3.17596406e-005 3.09960836e-005 2.57053463e-005 1.97673465e-005 
1.00000000e+000 2.84375000e+001 0.00000000e+000 1.79848652e-004 1.14263265e-004 7.32846021e-005 6.51403584e-005 5.08035376e-005 4.69567327e-005 4.53780093e-005 3.55112486e-005 2.57577067e-005 
1.00000000e+000 3.28125000e+001 0.00000000e+000 4.48570382e-004 1.95180082e-004 1.11233880e-004 9.61390239e-005 7.09108636e-005 6.45080200e-005 6.19288170e-005 4.66292996e-005 3.25464858e-005 
1.25000000e+000 2.18750000e+000 0.00000000e+000 3.19516633e-007 2.78683502e-006 4.32166972e-006 4.74602878e-006 5.63974250e-006 5.87186154e-006 5.96038802e-006 6.17098694e-006 5.77595342e-006 
1.25000000e+000 6.56250000e+000 0.00000000e+000 5.86422966e-007 3.95851034e-006 5.66005714e-006 6.09130419e-006 6.95231686e-006 7.15909069e-006 7.23477173e-006 7.31690320e-006 6.73883665e-006 
1.25000000e+000 1.09375000e+001 0.00000000e+000 1.53325703e-006 6.95870434e-006 8.75835066e-006 9.13787660e-006 9.80074127e-006 9.91813959e-006 9.95200300e-006 9.68192739e-006 8.65186623e-006 
1.25000000e+000 1.53125000e+001 0.00000000e+000 4.36219474e-006 1.27753269e-005 1.39061893e-005 1.40208167e-005 1.40538763e-005 1.39541183e-005 1.38924824e-005 1.29321442e-005 1.11197636e-005 
1.25000000e+000 1.96875000e+001 0.00000000e+000 1.32072507e-005 2.41952886e-005 2.24186205e-005 2.17577970e-005 2.02270648e-005 1.96615226e-005 1.94036502e-005 1.71770448e-005 1.40941900e-005 
1.25000000e+000 2.40625000e+001 0.00000000e+000 4.29257639e-005 4.79840175e-005 3.74108041e-005 3.48412942e-005 2.98367960e-005 2.83315522e-005 2.76893653e-005 2.31631867e-005 1.79838364e-005 
1.25000000e+000 2.84375000e+001 0.00000000e+000 1.90784206e-004 1.15770627e-004 7.32069284e-005 6.48459750e-005 5.02202980e-005 4.63247159e-005 4.47301569e-005 3.48399202e-005 2.51659123e-005 
1.25000000e+000 3.28125000e+001 0.00000000e+000 6.10849758e-004 2.22839841e-004 1.21299540e-004 1.03770494e-004 7.50357959e-005 6.78835377e-005 6.50206717e-005 4.83217720e-005 3.33181128e-005 
1.50000000e+000 2.18750000e+000 0.00000000e+000 9.93816996e-008 1.41479317e-006 2.58899956e-006 2.95707128e-006 3.79923322e-006 4.04459032e-006 4.14369138e-006 4.52712804e-006 4.46527466e-006 
1.50000000e+000 6.56250000e+000 0.00000000e+000 2.09815623e-007 2.13526993e-006 3.52513557e-006 3.92747646e-006 4.80565373e-006 5.04854756e-006 5.14460212e-006 5.46292940e-006 5.27859757e-006 
1.50000000e+000 1.09375000e+001 0.00000000e+000 6.64926067e-007 4.14388047e-006 5.83720263e-006 6.26040674e-006 7.10156262e-006 7.30463179e-006 7.37965647e-006 7.47359824e-006 6.95187016e-006 
1.50000000e+000 1.53125000e+001 0.00000000e+000 2.30983108e-006 8.53193704e-006 1.00756827e-005 1.03641967e-005 1.08233651e-005 1.08764745e-005 1.08831706e-005 1.04390837e-005 9.25347081e-006 
1.50000000e+000 1.96875000e+001 0.00000000e+000 8.62009521e-006 1.83308624e-005 1.78793015e-005 1.75702352e-005 1.67563643e-005 1.64105502e-005 1.62464954e-005 1.46563073e-005 1.22629829e-005 
1.50000000e+000 2.40625000e+001 0.00000000e+000 3.48727571e-005 4.15806772e-005 3.31357342e-005 3.10197354e-005 2.68416328e-005 2.55648462e-005 2.50172233e-005 2.10889618e-005 1.65076806e-005 
1.50000000e+000 2.84375000e+001 0.00000000e+000 2.05251383e-004 1.18224837e-004 7.37239075e-005 6.50880515e-005 5.00693911e-005 4.60948873e-005 4.44716925e-005 3.44720885e-005 2.47850153e-005 
1.50000000e+000 3.28125000e+001 0.00000000e+000 8.65920850e-004 2.57814737e-004 1.33514446e-004 1.12989830e-004 8.00272398e-005 7.19852132e-005 6.87866528e-005 5.04341317e-005 3.43338004e-005 
1.75000000e+000 2.18750000e+000 0.00000000e+000 3.11722772e-008 7.20591358e-007 1.55394954e-006 1.84543370e-006 2.56227749e-006 2.78877161e-006 2.88348999e-006 3.32348992e-006 3.45367695e-006 
1.75000000e+000 6.56250000e+000 0.00000000e+000 7.63815271e-008 1.16223877e-006 2.20845118e-006 2.54544028e-006 3.33451640e-006 3.57251371e-006 3.67039761e-006 4.08884982e-006 4.14206165e-006 
1.75000000e+000 1.09375000e+001 0.00000000e+000 2.93906432e-007 2.50110846e-006 3.92962015e-006 4.32834418e-006 5.18292099e-006 5.41561376e-006 5.50732964e-006 5.79806786e-006 5.60676822e-006 
1.75000000e+000 1.53125000e+001 0.00000000e+000 1.24426523e-006 5.77862032e-006 7.38719589e-006 7.74681048e-006 8.41423923e-006 8.55305909e-006 8.59955093e-006 8.48712803e-006 7.74359911e-006 
1.75000000e+000 1.96875000e+001 0.00000000e+000 5.70544519e-006 1.40557494e-005 1.44192611e-005 1.43431450e-005 1.40189852e-005 1.38281338e-005 1.37309379e-005 1.26091351e-005 1.07434486e-005 
1.75000000e+000 2.40625000e+001 0.00000000e+000 2.86285912e-005 3.63453024e-005 2.96044501e-005 2.78573655e-005 2.43534873e-005 2.32631648e-005 2.27926953e-005 1.93528507e-005 1.52610612e-005 
1.75000000e+000 2.84375000e+001 0.00000000e+000 2.24028725e-004 1.21437874e-004 7.46458819e-005 6.56876674e-005 5.02027361e-005 4.61304490e-005 4.44708056e-005 3.43100998e-005 2.45530464e-005 
1.75000000e+000 3.28125000e+001 0.00000000e+000 1.28042977e-003 3.02064977e-004 1.48124142e-004 1.23909705e-004 8.58662376e-005 7.67777569e-005 7.31866511e-005 5.29169877e-005 3.55548584e-005 
2.00000000e+000 2.18750000e+000 0.00000000e+000 9.85220840e-009 3.68181193e-007 9.34450173e-007 1.15354181e-006 1.73000352e-006 1.92481430e-006 2.00847172e-006 2.44156600e-006 2.67253786e-006 
2.00000000e+000 6.56250000e+000 0.00000000e+000 2.82106050e-008 6.37794093e-007 1.39118846e-006 1.65776901e-006 2.32217126e-006 2.53639407e-006 2.62694064e-006 3.06774664e-006 3.25582117e-006 
2.00000000e+000 1.09375000e+001 0.00000000e+000 1.31852629e-007 1.52655017e-006 2.66862261e-006 3.01664892e-006 3.80726205e-006 4.03936509e-006 4.13406346e-006 4.51921394e-006 4.53785304e-006 
2.00000000e+000 1.53125000e+001 0.00000000e+000 6.79267058e-007 3.95699426e-006 5.46830079e-006 5.84350948e-006 6.59363973e-006 6.77706025e-006 6.84554043e-006 6.94368627e-006 6.51286879e-006 
2.00000000e+000 1.96875000e+001 0.00000000e+000 3.81817607e-006 1.08757687e-005 1.17285345e-005 1.18070381e-005 1.18209799e-005 1.17412163e-005 1.16925101e-005 1.09222115e-005 9.46776197e-006 
2.00000000e+000 2.40625000e+001 0.00000000e+000 2.37045508e-005 3.19747400e-005 2.66170285e-005 2.51760223e-005 2.22359750e-005 2.13023385e-005 2.08967521e-005 1.78683997e-005 1.41893426e-005 
2.00000000e+000 2.84375000e+001 0.00000000e+000 2.48370828e-004 1.25358298e-004 7.58820321e-005 6.65542510e-005 5.05376514e-005 4.63529028e-005 4.46509903e-005 3.42932740e-005 2.44286919e-005 
2.00000000e+000 3.28125000e+001 0.00000000e+000 1.97927062e-003 3.58392941e-004 1.65538904e-004 1.36761118e-004 9.25991944e-005 8.22811665e-005 7.82320449e-005 5.57528554e-005 3.69597792e-005 
2.25000000e+000 2.18750000e+000 0.00000000e+000 3.13515832e-009 1.88696635e-007 5.62958941e-007 7.22200232e-007 1.16937760e-006 1.32984020e-006 1.40031840e-006 1.79491533e-006 2.06906511e-006 
2.25000000e+000 6.56250000e+000 0.00000000e+000 1.05466185e-008 3.52577121e-007 8.80848014e-007 1.08458129e-006 1.62277408e-006 1.80646394e-006 1.88583018e-006 2.30698289e-006 2.56348663e-006 
2.25000000e+000 1.09375000e+001 0.00000000e+000 5.98618398e-008 9.40457201e-007 1.82604494e-006 2.11730154e-006 2.81307207e-006 3.02931419e-006 3.11967287e-006 3.53763695e-006 3.68487911e-006 
2.25000000e+000 1.53125000e+001 0.00000000e+000 3.74860839e-007 2.73348161e-006 4.07977299e-006 4.44119739e-006 5.20192662e-006 5.40465480e-006 5.48393597e-006 5.71234204e-006 5.50265033e-006 
2.25000000e+000 1.96875000e+001 0.00000000e+000 2.57848747e-006 8.47543778e-006 9.60406341e-006 9.78360452e-006 1.00303697e-005 1.00307946e-005 1.00175806e-005 9.51468978e-006 8.38558179e-006 
2.25000000e+000 2.40625000e+001 0.00000000e+000 1.97715340e-005 2.82736911e-005 2.40469429e-005 2.28626002e-005 2.04007033e-005 1.96010851e-005 1.92511074e-005 1.65767658e-005 1.32536427e-005 
2.25000000e+000 2.84375000e+001 0.00000000e+000 2.80121044e-004 1.30002673e-004 7.73903847e-005 6.76420985e-005 5.10272501e-005 4.67164804e-005 4.49671330e-005 3.43834115e-005 2.43841588e-005 
2.25000000e+000 3.28125000e+001 0.00000000e+000 3.20409409e-003 4.30706916e-004 1.86322494e-004 1.51873880e-004 1.00318061e-004 8.85527643e-005 8.39686283e-005 5.89451260e-005 3.85386213e-005 
2.50000000e+000 2.18750000e+000 0.00000000e+000 1.00375295e-009 9.69935674e-008 3.39768241e-007 4.52856270e-007 7.91306941e-007 9.19689879e-007 9.77234228e-007 1.32044253e-006 1.60262534e-006 
2.50000000e+000 6.56250000e+000 0.00000000e+000 3.98381291e-009 1.96197258e-007 5.60361897e-007 7.12597987e-007 1.13774516e-006 1.29046111e-006 1.35771398e-006 1.73875502e-006 2.02165840e-006 
2.50000000e+000 1.09375000e+001 0.00000000e+000 2.74472588e-008 5.83946480e-007 1.25773471e-006 1.49526431e-006 2.08936900e-006 2.28301712e-006 2.36547046e-006 2.78026110e-006 3.00151664e-006 
2.50000000e+000 1.53125000e+001 0.00000000e+000 2.08755904e-007 1.90189157e-006 3.06368612e-006 3.39670144e-006 4.12754984e-006 4.33407826e-006 4.41713040e-006 4.72211611e-006 4.66808678e-006 
2.50000000e+000 1.96875000e+001 0.00000000e+000 1.75476719e-006 6.64339923e-006 7.90701065e-006 8.15013062e-006 8.55457700e-006 8.61275847e-006 8.62555467e-006 8.32777888e-006 7.45906751e-006 
2.50000000e+000 2.40625000e+001 0.00000000e+000 1.65974130e-005 2.51069023e-005 2.18089520e-005 2.08411407e-005 1.87879996e-005 1.81042410e-005 1.78024838e-005 1.54369494e-005 1.24258825e-005 
2.50000000e+000 2.84375000e+001 0.00000000e+000 3.21934504e-004 1.35429899e-004 7.91550214e-005 6.89296155e-005 5.16448401e-005 4.71942568e-005 4.53923580e-005 3.45561789e-005 2.44005798e-005 
2.50000000e+000 3.28125000e+001 0.00000000e+000 5.43684002e-003 5.24461810e-004 2.11210330e-004 1.69678745e-004 1.09152380e-004 9.56789987e-005 9.04684946e-005 6.25118706e-005 4.02894784e-005 
0.00000000e+000 2.18750000e+000 1.00000000e+001 1.10429680e-004 7.69172254e-005 5.07446665e-005 4.54893510e-005 3.61484893e-005 3.35803093e-005 3.25130123e-005 2.56025836e-005 1.83870236e-005 
0.00000000e+000 6.56250000e+000 1.00000000e+001 1.23071977e-004 8.53143248e-005 5.57687338e-005 4.98029459e-005 3.92163009e-005 3.63313245e-005 3.51379395e-005 2.75185869e-005 1.97217836e-005 
0.00000000e+000 1.09375000e+001 1.00000000e+001 1.41905207e-004 9.76377614e-005 6.32819407e-005 5.63006272e-005 4.39013946e-005 4.05451054e-005 3.91627348e-005 3.04652434e-005 2.17670602e-005 
0.00000000e+000 1.53125000e+001 1.00000000e+001 1.56494076e-004 1.07130329e-004 6.91520933e-005 6.14232670e-005 4.76793286e-005 4.39648637e-005 4.24373400e-005 3.28899293e-005 2.34526735e-005 
0.00000000e+000 1.96875000e+001 1.00000000e+001 1.65736953e-004 1.13288698e-004 7.29684188e-005 6.47619967e-005 5.01689357e-005 4.62284659e-005 4.46090319e-005 3.45148304e-005 2.45865679e-005 
0.00000000e+000 2.40625000e+001 1.00000000e+001 1.71071902e-004 1.16847875e-004 7.51265698e-005 6.66408994e-005 5.15678044e-005 4.75032321e-005 4.58335827e-005 3.54390877e-005 2.52315494e-005 
0.00000000e+000 2.84375000e+001 1.00000000e+001 1.78219289e-004 1.21688895e-004 7.79927182e-005 6.91077715e-005 5.33550591e-005 4.91204872e-005 4.73831151e-005 3.65975101e-005 2.60398933e-005 
0.00000000e+000 3.28125000e+001 1.00000000e+001 1.96887440e-004 1.34166155e-004 8.54487910e-005 7.55288085e-005 5.79820447e-005 5.32930270e-005 5.13744680e-005 3.95534743e-005 2.81040225e-005 
2.50000000e-001 2.18750000e+000 1.00000000e+001 3.20197564e-005 3.79546018e-005 2.98484154e-005 2.78870961e-005 2.40522591e-005 2.28692350e-005 2.23571280e-005 1.86198538e-005 1.41195627e-005 
2.50000000e-001 6.56250000e+000 1.00000000e+001 3.70367814e-005 4.28405736e-005 3.32059414e-005 3.08703613e-005 2.63257579e-005 2.49482417e-005 2.43568842e-005 2.01469908e-005 1.52262088e-005 
2.50000000e-001 1.09375000e+001 1.00000000e+001 4.60252613e-005 5.08079808e-005 3.86325902e-005 3.56976177e-005 3.00139576e-005 2.83208706e-005 2.76003162e-005 2.26135220e-005 1.69933244e-005 
2.50000000e-001 1.53125000e+001 1.00000000e+001 5.65479784e-005 5.87407540e-005 4.38027369e-005 4.02730027e-005 3.34924691e-005 3.14979959e-005 3.06538260e-005 2.49191105e-005 1.86156094e-005 
2.50000000e-001 1.96875000e+001 1.00000000e+001 6.94036572e-005 6.67996189e-005 4.86565250e-005 4.44914902e-005 3.65985669e-005 3.43114585e-005 3.33485089e-005 2.69096095e-005 1.99735011e-005 
2.50000000e-001 2.40625000e+001 1.00000000e+001 8.78316692e-005 7.64517117e-005 5.39452814e-005 4.89702420e-005 3.97252748e-005 3.71005277e-005 3.60027324e-005 2.87938132e-005 2.11949905e-005 
2.50000000e-001 2.84375000e+001 1.00000000e+001 1.30048303e-004 9.63432288e-005 6.43293270e-005 5.76355779e-005 4.55702578e-005 4.22582557e-005 4.08887092e-005 3.21698822e-005 2.33261926e-005 
2.50000000e-001 3.28125000e+001 1.00000000e+001 1.84921392e-004 1.23692282e-004 7.91453495e-005 7.01129593e-005 5.41491408e-005 4.98768256e-005 4.81268801e-005 3.72834221e-005 2.66793948e-005 
5.00000000e-001 2.18750000e+000 1.00000000e+001 9.38458777e-006 1.87941756e-005 1.75918262e-005 1.71248694e-005 1.60224196e-005 1.55908173e-005 1.53887294e-005 1.35512107e-005 1.08478499e-005 
5.00000000e-001 6.56250000e+000 1.00000000e+001 1.16051151e-005 2.18069598e-005 1.99259660e-005 1.92624749e-005 1.77546186e-005 1.72026615e-005 1.69502734e-005 1.47923441e-005 1.17786252e-005 
5.00000000e-001 1.09375000e+001 1.00000000e+001 1.63626258e-005 2.73158580e-005 2.40358700e-005 2.30047449e-005 2.07556875e-005 1.99854342e-005 1.96418301e-005 1.69052399e-005 1.33320802e-005 
5.00000000e-001 1.53125000e+001 1.00000000e+001 2.37720188e-005 3.41173186e-005 2.87085727e-005 2.71918459e-005 2.40222711e-005 2.29912551e-005 2.25394909e-005 1.91284088e-005 1.49114028e-005 
5.00000000e-001 1.96875000e+001 1.00000000e+001 3.58789211e-005 4.29692231e-005 3.42072862e-005 3.19964237e-005 2.75894445e-005 2.62277602e-005 2.56410872e-005 2.14210357e-005 1.64645426e-005 
5.00000000e-001 2.40625000e+001 1.00000000e+001 5.83034107e-005 5.62587595e-005 4.17128690e-005 3.83849158e-005 3.20750570e-005 3.02298287e-005 2.94491086e-005 2.41130930e-005 1.81902302e-005 
5.00000000e-001 2.84375000e+001 1.00000000e+001 1.23568835e-004 8.76237616e-005 5.81995455e-005 5.21610907e-005 4.13737289e-005 3.84288102e-005 3.72120861e-005 2.94448424e-005 2.15140262e-005 
5.00000000e-001 3.28125000e+001 1.00000000e+001 2.16244382e-004 1.28134124e-004 7.93953992e-005 6.98824814e-005 5.33848240e-005 4.90469900e-005 4.72796426e-005 3.64551604e-005 2.60144295e-005 
7.50000000e-001 2.18750000e+000 1.00000000e+001 2.77989266e-006 9.33887888e-006 1.03886143e-005 1.05336880e-005 1.06857813e-005 1.06398622e-005 1.06027145e-005 9.86936214e-006 8.33832086e-006 
7.50000000e-001 6.56250000e+000 1.00000000e+001 3.77041227e-006 1.12454679e-005 1.20476314e-005 1.20973455e-005 1.20286439e-005 1.19100697e-005 1.18415875e-005 1.08915136e-005 9.12945323e-006 
7.50000000e-001 1.09375000e+001 1.00000000e+001 6.24333108e-006 1.51184084e-005 1.52188155e-005 1.50512702e-005 1.45096416e-005 1.42410330e-005 1.41083388e-005 1.27246217e-005 1.05097798e-005 
7.50000000e-001 1.53125000e+001 1.00000000e+001 1.10086330e-005 2.07584383e-005 1.93786504e-005 1.88382254e-005 1.75566528e-005 1.70688439e-005 1.68438676e-005 1.48624104e-005 1.20472563e-005 
7.50000000e-001 1.96875000e+001 1.00000000e+001 2.06646419e-005 2.94021121e-005 2.50728071e-005 2.38756823e-005 2.13815512e-005 2.05590386e-005 2.01961064e-005 1.73676932e-005 1.37526889e-005 
7.50000000e-001 2.40625000e+001 1.00000000e+001 4.27911175e-005 4.44074917e-005 3.39529296e-005 3.15141155e-005 2.68484841e-005 2.54601247e-005 2.48683360e-005 2.07013714e-005 1.59005815e-005 
7.50000000e-001 2.84375000e+001 1.00000000e+001 1.26075948e-004 8.49152769e-005 5.54780038e-005 4.95559206e-005 3.91007775e-005 3.62798219e-005 3.51185147e-005 2.77574091e-005 2.02975564e-005 
7.50000000e-001 3.28125000e+001 1.00000000e+001 2.73417617e-004 1.39765049e-004 8.30692880e-005 7.24458728e-005 5.43995307e-005 4.97523992e-005 4.78717415e-005 3.65472919e-005 2.58677488e-005 
1.00000000e+000 2.18750000e+000 1.00000000e+001 8.32070880e-007 4.65661537e-006 6.14693596e-006 6.49024245e-006 7.13492706e-006 7.26862573e-006 7.31237258e-006 7.19298099e-006 6.41247821e-006 
1.00000000e+000 6.56250000e+000 1.00000000e+001 1.26376794e-006 5.87038174e-006 7.33730307e-006 7.64504437e-006 8.18550525e-006 8.27854151e-006 8.30391303e-006 8.04158407e-006 7.08974261e-006 
1.00000000e+000 1.09375000e+001 1.00000000e+001 2.50747141e-006 8.57929152e-006 9.79033419e-006 9.98505029e-006 1.02464164e-005 1.02407951e-005 1.02225540e-005 9.64048799e-006 8.32319196e-006 
1.00000000e+000 1.53125000e+001 1.00000000e+001 5.40681295e-006 1.30905405e-005 1.34070722e-005 1.33399775e-005 1.30455577e-005 1.28646045e-005 1.27710651e-005 1.16763433e-005 9.81143628e-006 
1.00000000e+000 1.96875000e+001 1.00000000e+001 1.25847823e-005 2.09746860e-005 1.89649824e-005 1.83330819e-005 1.69491823e-005 1.64547565e-005 1.62302951e-005 1.43059286e-005 1.16235752e-005 
1.00000000e+000 2.40625000e+001 1.00000000e+001 3.28299510e-005 3.64914755e-005 2.85903214e-005 2.67074905e-005 2.30781169e-005 2.19831216e-005 2.15136990e-005 1.81277711e-005 1.41138758e-005 
1.00000000e+000 2.84375000e+001 1.00000000e+001 1.32475489e-004 8.47406620e-005 5.44127638e-005 4.84055178e-005 3.78975399e-005 3.50920235e-005 3.39412705e-005 2.67152554e-005 1.94798699e-005 
1.00000000e+000 3.28125000e+001 1.00000000e+001 3.66845392e-004 1.56855481e-004 8.90060806e-005 7.68311183e-005 5.65741262e-005 5.14652596e-005 4.94116842e-005 3.72638020e-005 2.60880688e-005 
1.25000000e+000 2.18750000e+000 1.00000000e+001 2.51559225e-007 2.32990337e-006 3.64426951e-006 4.00558642e-006 4.76954203e-006 4.97069221e-006 5.04807343e-006 5.24610715e-006 4.93384342e-006 
1.25000000e+000 6.56250000e+000 1.00000000e+001 4.34801766e-007 3.09937934e-006 4.49961982e-006 4.86037223e-006 5.59419445e-006 5.77650188e-006 5.84453661e-006 5.95348334e-006 5.51617555e-006 
1.25000000e+000 1.09375000e+001 1.00000000e+001 1.04446692e-006 4.97186199e-006 6.38777666e-006 6.70738696e-006 7.30372063e-006 7.42691050e-006 7.46744966e-006 7.34900596e-006 6.62068153e-006 
1.25000000e+000 1.53125000e+001 1.00000000e+001 2.75533263e-006 8.48026744e-006 9.46417890e-006 9.62046349e-006 9.83357467e-006 9.82475103e-006 9.80706600e-006 9.26525966e-006 8.04977644e-006 
1.25000000e+000 1.96875000e+001 1.00000000e+001 7.91656013e-006 1.53865365e-005 1.46826509e-005 1.43860263e-005 1.36806030e-005 1.33944597e-005 1.32591544e-005 1.19430507e-005 9.92621845e-006 
1.25000000e+000 2.40625000e+001 1.00000000e+001 2.58189274e-005 3.07110987e-005 2.46172252e-005 2.31255807e-005 2.02216079e-005 1.93323913e-005 1.89490277e-005 1.61216664e-005 1.26866838e-005 
1.25000000e+000 2.84375000e+001 1.00000000e+001 1.42073128e-004 8.58873453e-005 5.42336141e-005 4.80514908e-005 3.73175566e-005 3.44763665e-005 3.33145743e-005 2.60843504e-005 1.89332632e-005 
1.25000000e+000 3.28125000e+001 1.00000000e+001 5.21927107e-004 1.79799571e-004 9.68814792e-005 8.27036752e-005 5.96283482e-005 5.39318097e-005 5.16575157e-005 3.84395194e-005 2.65812577e-005 
1.50000000e+000 2.18750000e+000 1.00000000e+001 7.67734355e-008 1.16971343e-006 2.16475227e-006 2.47623955e-006 3.19202456e-006 3.40273827e-006 3.48833423e-006 3.82889353e-006 3.79801547e-006 
1.50000000e+000 6.56250000e+000 1.00000000e+001 1.52861292e-007 1.65344173e-006 2.77750948e-006 3.10765786e-006 3.83906135e-006 4.04568440e-006 4.12820105e-006 4.41923993e-006 4.29983993e-006 
1.50000000e+000 1.09375000e+001 1.00000000e+001 4.46648757e-007 2.93183651e-006 4.21975886e-006 4.55600947e-006 5.25075750e-006 5.42838417e-006 5.49593928e-006 5.63466982e-006 5.28860832e-006 
1.50000000e+000 1.53125000e+001 1.00000000e+001 1.43938345e-006 5.60553674e-006 6.79013449e-006 7.04290184e-006 7.50382123e-006 7.58928577e-006 7.61464041e-006 7.41776151e-006 6.64920269e-006 
1.50000000e+000 1.96875000e+001 1.00000000e+001 5.08764833e-006 1.15058716e-005 1.15641025e-005 1.14750712e-005 1.12013301e-005 1.10523502e-005 1.09765019e-005 1.00831052e-005 8.55325988e-006 
1.50000000e+000 2.40625000e+001 1.00000000e+001 2.06452746e-005 2.62430628e-005 2.15159904e-005 2.03214394e-005 1.79660119e-005 1.72319813e-005 1.69135090e-005 1.45103849e-005 1.15210673e-005 
1.50000000e+000 2.84375000e+001 1.00000000e+001 1.55266725e-004 8.79125523e-005 5.45894956e-005 4.81777484e-005 3.71224000e-005 3.42184703e-005 3.30341981e-005 2.57233785e-005 1.85742569e-005 
1.50000000e+000 3.28125000e+001 1.00000000e+001 7.88167441e-004 2.10073616e-004 1.06767973e-004 9.00386666e-005 6.34599511e-005 5.70463180e-005 5.45037301e-005 3.99864942e-005 2.72897764e-005 
1.75000000e+000 2.18750000e+000 1.00000000e+001 2.36347510e-008 5.89208964e-007 1.28838417e-006 1.53333195e-006 2.13873171e-006 2.33177104e-006 2.41287221e-006 2.79651197e-006 2.92509318e-006 
1.75000000e+000 6.56250000e+000 1.00000000e+001 5.47075716e-008 8.90411035e-007 1.72504710e-006 1.99772780e-006 2.64505115e-006 2.84363817e-006 2.92589876e-006 3.28880965e-006 3.35781095e-006 
1.75000000e+000 1.09375000e+001 1.00000000e+001 1.94763498e-007 1.75376581e-006 2.81778554e-006 3.12515548e-006 3.80413742e-006 3.99599642e-006 4.07280270e-006 4.34358681e-006 4.24141825e-006 
1.75000000e+000 1.53125000e+001 1.00000000e+001 7.65528481e-007 3.76228691e-006 4.93551178e-006 5.21950524e-006 5.78581025e-006 5.92004827e-006 5.96884180e-006 5.98558388e-006 5.52613844e-006 
1.75000000e+000 1.96875000e+001 1.00000000e+001 3.32093482e-006 8.72291701e-006 9.22544300e-006 9.26758164e-006 9.27545759e-006 9.21931983e-006 9.18423025e-006 8.59276974e-006 7.42756487e-006 
1.75000000e+000 2.40625000e+001 1.00000000e+001 1.67159863e-005 2.26625423e-005 1.90032100e-005 1.80443014e-005 1.61246606e-005 1.55138904e-005 1.52469438e-005 1.31817695e-005 1.05493989e-005 
1.75000000e+000 2.84375000e+001 1.00000000e+001 1.73028453e-004 9.06617138e-005 5.53156267e-005 4.86281679e-005 3.71819461e-005 3.41978884e-005 3.29839909e-005 2.55458857e-005 1.83478108e-005 
1.75000000e+000 3.28125000e+001 1.00000000e+001 1.26336421e-003 2.50087258e-004 1.18970878e-004 9.89862362e-005 6.80668576e-005 6.07874245e-005 5.79231228e-005 4.18635242e-005 2.81798206e-005 
2.00000000e+000 2.18750000e+000 1.00000000e+001 7.33344981e-009 2.97764256e-007 7.68269075e-007 9.51022725e-007 1.43464542e-006 1.59951077e-006 1.67060118e-006 2.04393265e-006 2.25389638e-006 
2.00000000e+000 6.56250000e+000 1.00000000e+001 1.98711739e-008 4.83587602e-007 1.07753813e-006 1.29074029e-006 1.82930552e-006 2.00561325e-006 2.08058711e-006 2.45363497e-006 2.62682836e-006 