TITLE="DIR08_SCB_ER_E_WD280.dat"
VARIABLES= "Density" "Radius" "Height" "0.1053" "0.356" "0.6617" "1.3325" 
ZONE T="3D Data" I=11 J=8 K=3 F=POINT
0.00000000e+000 2.18750000e+000 0.00000000e+000 1.06433158e-004 7.26160596e-005 4.56195249e-005 2.77702931e-005 
0.00000000e+000 6.56250000e+000 0.00000000e+000 1.07269934e-004 7.31536412e-005 4.60384227e-005 2.82418548e-005 
0.00000000e+000 1.09375000e+001 0.00000000e+000 1.12574267e-004 7.65658373e-005 4.85248265e-005 3.01809010e-005 
0.00000000e+000 1.53125000e+001 0.00000000e+000 1.29897934e-004 8.79035079e-005 5.60153312e-005 3.50387513e-005 
0.00000000e+000 1.96875000e+001 0.00000000e+000 1.58911870e-004 1.07215223e-004 6.82793877e-005 4.25724551e-005 
0.00000000e+000 2.40625000e+001 0.00000000e+000 1.96008318e-004 1.31907587e-004 8.38251611e-005 5.19897246e-005 
0.00000000e+000 2.84375000e+001 0.00000000e+000 2.33901605e-004 1.57090309e-004 9.96221337e-005 6.15346499e-005 
0.00000000e+000 3.28125000e+001 0.00000000e+000 2.66020965e-004 1.78415834e-004 1.13110547e-004 6.98205295e-005 
2.50000000e-001 2.18750000e+000 0.00000000e+000 3.14655930e-005 3.62322203e-005 2.70583088e-005 1.90265043e-005 
2.50000000e-001 6.56250000e+000 0.00000000e+000 3.29305269e-005 3.71432830e-005 2.76394643e-005 1.95089617e-005 
2.50000000e-001 1.09375000e+001 0.00000000e+000 3.74001114e-005 4.03660159e-005 2.99123496e-005 2.12293597e-005 
2.50000000e-001 1.53125000e+001 0.00000000e+000 4.84530977e-005 4.91055879e-005 3.59861618e-005 2.53624255e-005 
2.50000000e-001 1.96875000e+001 0.00000000e+000 6.93894287e-005 6.50333913e-005 4.65633228e-005 3.21307627e-005 
2.50000000e-001 2.40625000e+001 0.00000000e+000 1.06154393e-004 8.98458406e-005 6.22208708e-005 4.16493158e-005 
2.50000000e-001 2.84375000e+001 0.00000000e+000 1.82642147e-004 1.31078907e-004 8.59034206e-005 5.48249940e-005 
2.50000000e-001 3.28125000e+001 0.00000000e+000 2.62863968e-004 1.71474561e-004 1.08671870e-004 6.73537918e-005 
5.00000000e-001 2.18750000e+000 0.00000000e+000 9.40257174e-006 1.81412274e-005 1.60805849e-005 1.30492155e-005 
5.00000000e-001 6.56250000e+000 0.00000000e+000 1.05519054e-005 1.91335534e-005 1.67304007e-005 1.35346566e-005 
5.00000000e-001 1.09375000e+001 0.00000000e+000 1.36859688e-005 2.20295061e-005 1.88096132e-005 1.50906606e-005 
5.00000000e-001 1.53125000e+001 0.00000000e+000 2.09195799e-005 2.90161785e-005 2.38957168e-005 1.86883354e-005 
5.00000000e-001 1.96875000e+001 0.00000000e+000 3.63565031e-005 4.25310787e-005 3.32361800e-005 2.48710468e-005 
5.00000000e-001 2.40625000e+001 0.00000000e+000 7.03988608e-005 6.70385310e-005 4.89063855e-005 3.44780405e-005 
5.00000000e-001 2.84375000e+001 0.00000000e+000 1.73813913e-004 1.21055451e-004 7.92221449e-005 5.08583623e-005 
5.00000000e-001 3.28125000e+001 0.00000000e+000 3.06159127e-004 1.79109160e-004 1.10403761e-004 6.72321630e-005 
7.50000000e-001 2.18750000e+000 0.00000000e+000 2.83993923e-006 9.11481947e-006 9.57534482e-006 8.95894045e-006 
7.50000000e-001 6.56250000e+000 0.00000000e+000 3.51184082e-006 9.99255932e-006 1.02079190e-005 9.42963874e-006 
7.50000000e-001 1.09375000e+001 0.00000000e+000 5.38472542e-006 1.23931762e-005 1.20459928e-005 1.08343767e-005 
7.50000000e-001 1.53125000e+001 0.00000000e+000 9.90160455e-006 1.79277033e-005 1.63216505e-005 1.39934842e-005 
7.50000000e-001 1.96875000e+001 0.00000000e+000 2.09798840e-005 2.93385547e-005 2.45858212e-005 1.96683253e-005 
7.50000000e-001 2.40625000e+001 0.00000000e+000 5.09633410e-005 5.28982963e-005 4.00110848e-005 2.92807858e-005 
7.50000000e-001 2.84375000e+001 0.00000000e+000 1.75894157e-004 1.17404891e-004 7.59570450e-005 4.84876800e-005 
7.50000000e-001 3.28125000e+001 0.00000000e+000 3.83091485e-004 1.94831581e-004 1.15708047e-004 6.86020539e-005 
1.00000000e+000 2.18750000e+000 0.00000000e+000 8.66919556e-007 4.59557364e-006 5.71292824e-006 6.15709384e-006 
1.00000000e+000 6.56250000e+000 0.00000000e+000 1.20686885e-006 5.28602652e-006 6.27590885e-006 6.59676025e-006 
1.00000000e+000 1.09375000e+001 0.00000000e+000 2.22956004e-006 7.15390938e-006 7.84193685e-006 7.85131084e-006 
1.00000000e+000 1.53125000e+001 0.00000000e+000 4.95582697e-006 1.14599946e-005 1.14122248e-005 1.06280733e-005 
1.00000000e+000 1.96875000e+001 0.00000000e+000 1.27694702e-005 2.09954393e-005 1.86879651e-005 1.58328088e-005 
1.00000000e+000 2.40625000e+001 0.00000000e+000 3.85475293e-005 4.31959396e-005 3.36458232e-005 2.53580144e-005 
1.00000000e+000 2.84375000e+001 0.00000000e+000 1.83034852e-004 1.16729259e-004 7.44867985e-005 4.70804446e-005 
1.00000000e+000 3.28125000e+001 0.00000000e+000 5.08658420e-004 2.17382570e-004 1.23635269e-004 7.10315763e-005 
1.25000000e+000 2.18750000e+000 0.00000000e+000 2.67367731e-007 2.32509066e-006 3.41519287e-006 4.23586263e-006 
1.25000000e+000 6.56250000e+000 0.00000000e+000 4.25809308e-007 2.82943520e-006 3.88644848e-006 4.63338984e-006 
1.25000000e+000 1.09375000e+001 0.00000000e+000 9.56397512e-007 4.21842924e-006 5.17933028e-006 5.73874448e-006 
1.25000000e+000 1.53125000e+001 0.00000000e+000 2.56982956e-006 7.51475145e-006 8.13282188e-006 8.17276749e-006 
1.25000000e+000 1.96875000e+001 0.00000000e+000 8.03244918e-006 1.54131324e-005 1.44992698e-005 1.29322387e-005 
1.25000000e+000 2.40625000e+001 0.00000000e+000 2.99359891e-005 3.60574849e-005 2.88377822e-005 2.22897259e-005 
1.25000000e+000 2.84375000e+001 0.00000000e+000 1.94022784e-004 1.17726993e-004 7.40527836e-005 4.62803064e-005 
1.25000000e+000 3.28125000e+001 0.00000000e+000 7.16513625e-004 2.47555714e-004 1.33977533e-004 7.43169506e-005 
1.50000000e+000 2.18750000e+000 0.00000000e+000 8.32599570e-008 1.18042986e-006 2.04561263e-006 2.91712478e-006 
1.50000000e+000 6.56250000e+000 0.00000000e+000 1.53477505e-007 1.53076093e-006 2.42312454e-006 3.26690824e-006 
1.50000000e+000 1.09375000e+001 0.00000000e+000 4.20621604e-007 2.53099118e-006 3.46393478e-006 4.22777410e-006 
1.50000000e+000 1.53125000e+001 0.00000000e+000 1.36509924e-006 5.02283306e-006 5.88533836e-006 6.35235263e-006 
1.50000000e+000 1.96875000e+001 0.00000000e+000 5.16843213e-006 1.15235205e-005 1.14258879e-005 1.06892437e-005 
1.50000000e+000 2.40625000e+001 0.00000000e+000 2.36739474e-005 3.05549346e-005 2.50551922e-005 1.98165213e-005 
1.50000000e+000 2.84375000e+001 0.00000000e+000 2.08844333e-004 1.19862849e-004 7.42834514e-005 4.58817830e-005 
1.50000000e+000 3.28125000e+001 0.00000000e+000 1.07063523e-003 2.87354356e-004 1.46910809e-004 7.83831555e-005 
1.75000000e+000 2.18750000e+000 0.00000000e+000 2.61584873e-008 6.01342084e-007 1.22766819e-006 2.01101408e-006 
1.75000000e+000 6.56250000e+000 0.00000000e+000 5.62868876e-008 8.36130399e-007 1.52035126e-006 2.31194046e-006 
1.75000000e+000 1.09375000e+001 0.00000000e+000 1.88389821e-007 1.54003403e-006 2.34180822e-006 3.13698401e-006 
1.75000000e+000 1.53125000e+001 0.00000000e+000 7.38026402e-007 3.40643424e-006 4.31182445e-006 4.98299211e-006 
1.75000000e+000 1.96875000e+001 0.00000000e+000 3.38211316e-006 8.73326656e-006 9.11262210e-006 8.92131451e-006 
1.75000000e+000 2.40625000e+001 0.00000000e+000 1.89779693e-005 2.61772896e-005 2.19886309e-005 1.77732031e-005 
1.75000000e+000 2.84375000e+001 0.00000000e+000 2.27988157e-004 1.22910280e-004 7.49891473e-005 4.57635148e-005 
1.75000000e+000 3.28125000e+001 0.00000000e+000 1.69308054e-003 3.39929857e-004 1.62862912e-004 8.32330783e-005 
2.00000000e+000 2.18750000e+000 0.00000000e+000 8.28425251e-009 3.07363473e-007 7.38215079e-007 1.38778366e-006 
2.00000000e+000 6.56250000e+000 0.00000000e+000 2.09382739e-008 4.60623314e-007 9.59517846e-007 1.64189490e-006 
2.00000000e+000 1.09375000e+001 0.00000000e+000 8.55550090e-008 9.47797324e-007 1.59787235e-006 2.34269147e-006 
2.00000000e+000 1.53125000e+001 0.00000000e+000 4.04473303e-007 2.33647753e-006 3.19070229e-006 3.93965820e-006 
2.00000000e+000 1.96875000e+001 0.00000000e+000 2.24270812e-006 6.68849841e-006 7.33660589e-006 7.50521589e-006 
2.00000000e+000 2.40625000e+001 0.00000000e+000 1.53780142e-005 2.26162258e-005 1.94466885e-005 1.60511208e-005 
2.00000000e+000 2.84375000e+001 0.00000000e+000 2.52301841e-004 1.26782010e-004 7.60703442e-005 4.58521394e-005 
2.00000000e+000 3.28125000e+001 0.00000000e+000 2.82102478e-003 4.09872245e-004 1.82480499e-004 8.89220447e-005 
2.25000000e+000 2.18750000e+000 0.00000000e+000 2.64225985e-009 1.57611338e-007 4.44754419e-007 9.58680795e-007 
2.25000000e+000 6.56250000e+000 0.00000000e+000 7.88121059e-009 2.55686087e-007 6.08837952e-007 1.16995110e-006 
2.25000000e+000 1.09375000e+001 0.00000000e+000 3.92828097e-008 5.88757405e-007 1.09889490e-006 1.75968335e-006 
2.25000000e+000 1.53125000e+001 0.00000000e+000 2.24116544e-007 1.61709196e-006 2.38041380e-006 3.13577746e-006 
2.25000000e+000 1.96875000e+001 0.00000000e+000 1.50336803e-006 5.16572700e-006 5.95174532e-006 6.35556042e-006 
2.25000000e+000 2.40625000e+001 0.00000000e+000 1.25715943e-005 1.96715622e-005 1.73040921e-005 1.45764403e-005 
2.25000000e+000 2.84375000e+001 0.00000000e+000 2.83007977e-004 1.31462366e-004 7.74749082e-005 4.61023880e-005 
2.25000000e+000 3.28125000e+001 0.00000000e+000 4.92399534e-003 5.03770386e-004 2.06646114e-004 9.55459956e-005 
2.50000000e+000 2.18750000e+000 0.00000000e+000 8.48054339e-010 8.10721009e-008 2.68460307e-007 6.62933835e-007 
2.50000000e+000 6.56250000e+000 0.00000000e+000 2.99604900e-009 1.42884600e-007 3.88236666e-007 8.36309633e-007 
2.50000000e+000 1.09375000e+001 0.00000000e+000 1.81999082e-008 3.68539711e-007 7.60844156e-007 1.32863854e-006 
2.50000000e+000 1.53125000e+001 0.00000000e+000 1.25321294e-007 1.12745855e-006 1.78791297e-006 2.51034252e-006 
2.50000000e+000 1.96875000e+001 0.00000000e+000 1.01700321e-006 4.01738456e-006 4.85853283e-006 5.41168603e-006 
2.50000000e+000 2.40625000e+001 0.00000000e+000 1.03543611e-005 1.72057705e-005 1.54747070e-005 1.32973532e-005 
2.50000000e+000 2.84375000e+001 0.00000000e+000 3.21793624e-004 1.36978483e-004 7.91773272e-005 4.64859024e-005 
2.50000000e+000 3.28125000e+001 0.00000000e+000 8.94731039e-003 6.31089939e-004 2.36527876e-004 1.03237343e-004 
0.00000000e+000 2.18750000e+000 1.00000000e+001 1.15490479e-004 7.90505616e-005 4.97908757e-005 3.03533712e-005 
0.00000000e+000 6.56250000e+000 1.00000000e+001 1.16547172e-004 7.97373072e-005 5.02727302e-005 3.07911439e-005 
0.00000000e+000 1.09375000e+001 1.00000000e+001 1.21048469e-004 8.26880828e-005 5.23520891e-005 3.23542683e-005 
0.00000000e+000 1.53125000e+001 1.00000000e+001 1.32674639e-004 9.02977593e-005 5.74054965e-005 3.56865968e-005 
0.00000000e+000 1.96875000e+001 1.00000000e+001 1.50857623e-004 1.02298275e-004 6.51005530e-005 4.05180428e-005 
0.00000000e+000 2.40625000e+001 1.00000000e+001 1.73079755e-004 1.16984192e-004 7.44457435e-005 4.63097957e-005 
0.00000000e+000 2.84375000e+001 1.00000000e+001 1.94311243e-004 1.30986581e-004 8.33145432e-005 5.17926185e-005 
0.00000000e+000 3.28125000e+001 1.00000000e+001 2.14851187e-004 1.44657214e-004 9.19619188e-005 5.71379028e-005 
2.50000000e-001 2.18750000e+000 1.00000000e+001 3.35960879e-005 3.90804698e-005 2.93283066e-005 2.06920376e-005 
2.50000000e-001 6.56250000e+000 1.00000000e+001 3.52995606e-005 4.01747544e-005 3.00068755e-005 2.11800171e-005 
2.50000000e-001 1.09375000e+001 1.00000000e+001 3.98703684e-005 4.33714786e-005 3.21436830e-005 2.26880598e-005 
2.50000000e-001 1.53125000e+001 1.00000000e+001 4.93030680e-005 5.02894812e-005 3.67779782e-005 2.57670558e-005 
2.50000000e-001 1.96875000e+001 1.00000000e+001 6.56346857e-005 6.17928096e-005 4.42165645e-005 3.04677536e-005 
2.50000000e-001 2.40625000e+001 1.00000000e+001 9.26114866e-005 7.88633006e-005 5.47631636e-005 3.68269557e-005 
2.50000000e-001 2.84375000e+001 1.00000000e+001 1.47356968e-004 1.06970948e-004 7.05886388e-005 4.55311802e-005 
2.50000000e-001 3.28125000e+001 1.00000000e+001 2.07579184e-004 1.36585445e-004 8.70366765e-005 5.44731459e-005 
5.00000000e-001 2.18750000e+000 1.00000000e+001 9.87961124e-006 1.93884225e-005 1.73095491e-005 1.41205372e-005 
5.00000000e-001 6.56250000e+000 1.00000000e+001 1.11577701e-005 2.05353675e-005 1.80581208e-005 1.46319258e-005 
5.00000000e-001 1.09375000e+001 1.00000000e+001 1.44658295e-005 2.35525622e-005 2.01357865e-005 1.60801145e-005 
5.00000000e-001 1.53125000e+001 1.00000000e+001 2.12867199e-005 2.96812718e-005 2.43851504e-005 1.89533142e-005 
5.00000000e-001 1.96875000e+001 1.00000000e+001 3.46153832e-005 4.04521620e-005 3.15375695e-005 2.35401417e-005 
5.00000000e-001 2.40625000e+001 1.00000000e+001 6.17353329e-005 5.87705937e-005 4.29076831e-005 3.03613100e-005 
5.00000000e-001 2.84375000e+001 1.00000000e+001 1.39303438e-004 9.79314649e-005 6.45106944e-005 4.18824194e-005 
5.00000000e-001 3.28125000e+001 1.00000000e+001 2.41624411e-004 1.41988514e-004 8.78880965e-005 5.40285702e-005 
7.50000000e-001 2.18750000e+000 1.00000000e+001 2.93689890e-006 9.65277774e-006 1.02363669e-005 9.64607713e-006 
7.50000000e-001 6.56250000e+000 1.00000000e+001 3.66225946e-006 1.06412492e-005 1.09539054e-005 1.01510675e-005 
7.50000000e-001 1.09375000e+001 1.00000000e+001 5.63931794e-006 1.31838566e-005 1.28470735e-005 1.15119555e-005 
7.50000000e-001 1.53125000e+001 1.00000000e+001 1.00743206e-005 1.83343420e-005 1.66450823e-005 1.41754815e-005 
7.50000000e-001 1.96875000e+001 1.00000000e+001 2.01301409e-005 2.80052105e-005 2.33621512e-005 1.86078701e-005 
7.50000000e-001 2.40625000e+001 1.00000000e+001 4.50503837e-005 4.65138265e-005 3.51162850e-005 2.57409627e-005 
7.50000000e-001 2.84375000e+001 1.00000000e+001 1.40482674e-004 9.46277080e-005 6.15710182e-005 3.97260563e-005 
7.50000000e-001 3.28125000e+001 1.00000000e+001 3.03391469e-004 1.54430986e-004 9.19425077e-005 5.49575610e-005 
1.00000000e+000 2.18750000e+000 1.00000000e+001 8.82426232e-007 4.82267614e-006 6.06550633e-006 6.59631995e-006 
1.00000000e+000 6.56250000e+000 1.00000000e+001 1.24088077e-006 5.58498617e-006 6.69514939e-006 7.07144417e-006 
1.00000000e+000 1.09375000e+001 1.00000000e+001 2.31140195e-006 7.57095480e-006 8.33206472e-006 8.31917306e-006 
1.00000000e+000 1.53125000e+001 1.00000000e+001 5.03362907e-006 1.17192559e-005 1.16359284e-005 1.07584963e-005 
1.00000000e+000 1.96875000e+001 1.00000000e+001 1.23263621e-005 2.01301130e-005 1.78036078e-005 1.49879256e-005 
1.00000000e+000 2.40625000e+001 1.00000000e+001 3.43222206e-005 3.81526475e-005 2.95949726e-005 2.22906978e-005 
1.00000000e+000 2.84375000e+001 1.00000000e+001 1.45613764e-004 9.38838420e-005 6.02298461e-005 3.84528130e-005 
1.00000000e+000 3.28125000e+001 1.00000000e+001 4.05277962e-004 1.72566888e-004 9.82499977e-005 5.68325100e-005 
1.25000000e+000 2.18750000e+000 1.00000000e+001 2.67885684e-007 2.41794196e-006 3.60121431e-006 4.51548158e-006 
1.25000000e+000 6.56250000e+000 1.00000000e+001 4.31562856e-007 2.96574569e-006 4.12165700e-006 4.94576701e-006 
1.25000000e+000 1.09375000e+001 1.00000000e+001 9.80651068e-007 4.44008469e-006 5.48199123e-006 6.06403811e-006 
1.25000000e+000 1.53125000e+001 1.00000000e+001 2.60104553e-006 7.68215502e-006 8.29160221e-006 8.26940731e-006 
1.25000000e+000 1.96875000e+001 1.00000000e+001 7.78450857e-006 1.48414425e-005 1.38552442e-005 1.22573463e-005 
1.25000000e+000 2.40625000e+001 1.00000000e+001 2.68137659e-005 3.19972995e-005 2.54422451e-005 1.96117581e-005 
1.25000000e+000 2.84375000e+001 1.00000000e+001 1.53577585e-004 9.45148624e-005 5.97814684e-005 3.77242948e-005 
1.25000000e+000 3.28125000e+001 1.00000000e+001 5.76703024e-004 1.96977346e-004 1.06574865e-004 5.94495167e-005 
1.50000000e+000 2.18750000e+000 1.00000000e+001 8.21166467e-008 1.21650774e-006 2.14234898e-006 3.09426608e-006 
1.50000000e+000 6.56250000e+000 1.00000000e+001 1.53305726e-007 1.59164858e-006 2.55453379e-006 3.47235708e-006 
1.50000000e+000 1.09375000e+001 1.00000000e+001 4.26273408e-007 2.64872407e-006 3.65189850e-006 4.45518220e-006 
1.50000000e+000 1.53125000e+001 1.00000000e+001 1.37472696e-006 5.13040248e-006 5.99928521e-006 6.42563256e-006 
1.50000000e+000 1.96875000e+001 1.00000000e+001 5.01969358e-006 1.11377499e-005 1.09520904e-005 1.01478027e-005 
1.50000000e+000 2.40625000e+001 1.00000000e+001 2.13063997e-005 2.72346880e-005 2.21769938e-005 1.74619915e-005 
1.50000000e+000 2.84375000e+001 1.00000000e+001 1.64258420e-004 9.60419795e-005 5.98868368e-005 3.73481602e-005 
1.50000000e+000 3.28125000e+001 1.00000000e+001 8.75983211e-004 2.29341423e-004 1.17040919e-004 6.27289954e-005 
1.75000000e+000 2.18750000e+000 1.00000000e+001 2.53964134e-008 6.14149127e-007 1.27699028e-006 2.12257045e-006 
1.75000000e+000 6.56250000e+000 1.00000000e+001 5.54056323e-008 8.62354344e-007 1.59322756e-006 2.44686970e-006 
1.75000000e+000 1.09375000e+001 1.00000000e+001 1.88603829e-007 1.60197458e-006 2.45879335e-006 3.29659602e-006 
1.75000000e+000 1.53125000e+001 1.00000000e+001 7.38577211e-007 3.47445284e-006 4.39366742e-006 5.03931178e-006 
1.75000000e+000 1.96875000e+001 1.00000000e+001 3.28700049e-006 8.46683962e-006 8.75997175e-006 8.48458181e-006 
1.75000000e+000 2.40625000e+001 1.00000000e+001 1.71447324e-005 2.34266260e-005 1.95253102e-005 1.56897480e-005 
1.75000000e+000 2.84375000e+001 1.00000000e+001 1.77925543e-004 9.82616819e-005 6.03754578e-005 3.72123751e-005 
1.75000000e+000 3.28125000e+001 1.00000000e+001 1.41976739e-003 2.72376781e-004 1.30001771e-004 6.66652140e-005 
2.00000000e+000 2.18750000e+000 1.00000000e+001 7.91749879e-009 3.11092080e-007 7.62667072e-007 1.45752750e-006 
2.00000000e+000 6.56250000e+000 1.00000000e+001 2.03089807e-008 4.71193408e-007 9.99461198e-007 1.73029269e-006 
2.00000000e+000 1.09375000e+001 1.00000000e+001 8.45808436e-008 9.79723253e-007 1.67057805e-006 2.45499701e-006 
2.00000000e+000 1.53125000e+001 1.00000000e+001 4.01850762e-007 2.37839411e-006 3.24913030e-006 3.98317871e-006 
2.00000000e+000 1.96875000e+001 1.00000000e+001 2.17851449e-006 6.49992968e-006 7.07081202e-006 7.15079801e-006 
2.00000000e+000 2.40625000e+001 1.00000000e+001 1.39334942e-005 2.03122960e-005 1.73208072e-005 1.41968737e-005 
2.00000000e+000 2.84375000e+001 1.00000000e+001 1.95105877e-004 1.01090204e-004 6.11584220e-005 3.72500558e-005 
2.00000000e+000 3.28125000e+001 1.00000000e+001 2.44684905e-003 3.30129199e-004 1.46008700e-004 7.13012123e-005 
2.25000000e+000 2.18750000e+000 1.00000000e+001 2.48597853e-009 1.58093496e-007 4.56375899e-007 1.00189071e-006 
2.25000000e+000 6.56250000e+000 1.00000000e+001 7.53222893e-009 2.59403381e-007 6.30340720e-007 1.22765009e-006 
2.25000000e+000 1.09375000e+001 1.00000000e+001 3.83394751e-008 6.04622085e-007 1.14384324e-006 1.83877816e-006 
2.25000000e+000 1.53125000e+001 1.00000000e+001 2.20887352e-007 1.64196283e-006 2.42165498e-006 3.16937484e-006 
2.25000000e+000 1.96875000e+001 1.00000000e+001 1.45817997e-006 5.02886740e-006 5.74878063e-006 6.06608161e-006 
2.25000000e+000 2.40625000e+001 1.00000000e+001 1.14163592e-005 1.77235221e-005 1.54560867e-005 1.29176413e-005 
2.25000000e+000 2.84375000e+001 1.00000000e+001 2.16590009e-004 1.04502823e-004 6.21886662e-005 3.74203422e-005 
2.25000000e+000 3.28125000e+001 1.00000000e+001 4.45695285e-003 4.08540234e-004 1.65827653e-004 7.67172456e-005 
2.50000000e+000 2.18750000e+000 1.00000000e+001 7.85503388e-010 8.05920421e-008 2.73613127e-007 6.89399401e-007 
2.50000000e+000 6.56250000e+000 1.00000000e+001 2.82135146e-009 1.43763017e-007 3.99497304e-007 8.73773586e-007 
2.50000000e+000 1.09375000e+001 1.00000000e+001 1.75326585e-008 3.75926693e-007 7.88362359e-007 1.38430821e-006 
2.50000000e+000 1.53125000e+001 1.00000000e+001 1.22457605e-007 1.14138027e-006 1.81655295e-006 2.53611931e-006 
2.50000000e+000 1.96875000e+001 1.00000000e+001 9.84205109e-007 3.91553831e-006 4.70146595e-006 5.17367201e-006 
2.50000000e+000 2.40625000e+001 1.00000000e+001 9.41868055e-006 1.55450015e-005 1.38580065e-005 1.18065220e-005 
2.50000000e+000 2.84375000e+001 1.00000000e+001 2.43492145e-004 1.08508474e-004 6.34420082e-005 3.76977898e-005 
2.50000000e+000 3.28125000e+001 1.00000000e+001 8.51600002e-003 5.16359473e-004 1.90488825e-004 8.30267862e-005 
0.00000000e+000 2.18750000e+000 2.00000000e+001 1.31009285e-004 8.92329885e-005 5.61762010e-005 3.41724650e-005 
0.00000000e+000 6.56250000e+000 2.00000000e+001 1.32699059e-004 9.03337635e-005 5.68699230e-005 3.46269914e-005 
0.00000000e+000 1.09375000e+001 2.00000000e+001 1.36332551e-004 9.27053303e-005 5.83891820e-005 3.56354974e-005 
0.00000000e+000 1.53125000e+001 2.00000000e+001 1.42220772e-004 9.65366789e-005 6.08636777e-005 3.72608673e-005 
0.00000000e+000 1.96875000e+001 2.00000000e+001 1.51335382e-004 1.02447214e-004 6.46439830e-005 3.96729910e-005 
0.00000000e+000 2.40625000e+001 2.00000000e+001 1.63708814e-004 1.10458525e-004 6.97061769e-005 4.28232555e-005 
0.00000000e+000 2.84375000e+001 2.00000000e+001 1.79378292e-004 1.20657748e-004 7.60940784e-005 4.67167141e-005 
0.00000000e+000 3.28125000e+001 2.00000000e+001 2.02138515e-004 1.35635992e-004 8.54617163e-005 5.23737232e-005 
2.50000000e-001 2.18750000e+000 2.00000000e+001 3.62995693e-005 4.29053028e-005 3.24055485e-005 2.29458263e-005 
2.50000000e-001 6.56250000e+000 2.00000000e+001 3.83962286e-005 4.43357544e-005 3.32809861e-005 2.34792928e-005 
2.50000000e-001 1.09375000e+001 2.00000000e+001 4.31819125e-005 4.75258552e-005 3.52330421e-005 2.46717968e-005 
2.50000000e-001 1.53125000e+001 2.00000000e+001 5.14207694e-005 5.28434204e-005 3.84704148e-005 2.66268225e-005 
2.50000000e-001 1.96875000e+001 2.00000000e+001 6.51136263e-005 6.12987121e-005 4.35398610e-005 2.96144963e-005 
2.50000000e-001 2.40625000e+001 2.00000000e+001 8.82140161e-005 7.44582749e-005 5.11684551e-005 3.39314093e-005 
2.50000000e-001 2.84375000e+001 2.00000000e+001 1.38574576e-004 9.92808265e-005 6.46897978e-005 4.10675661e-005 
2.50000000e-001 3.28125000e+001 2.00000000e+001 2.05948802e-004 1.31508379e-004 8.23302143e-005 5.04516044e-005 
5.00000000e-001 2.18750000e+000 2.00000000e+001 1.01714020e-005 2.07052738e-005 1.87318176e-005 1.54240704e-005 
5.00000000e-001 6.56250000e+000 2.00000000e+001 1.15982331e-005 2.20786935e-005 1.96385661e-005 1.59902252e-005 
5.00000000e-001 1.09375000e+001 2.00000000e+001 1.50795821e-005 2.52370357e-005 2.16989906e-005 1.72687275e-005 
5.00000000e-001 1.53125000e+001 2.00000000e+001 2.16812196e-005 3.07223437e-005 2.52047116e-005 1.94036453e-005 
5.00000000e-001 1.96875000e+001 2.00000000e+001 3.41984863e-005 3.99525347e-005 3.09089287e-005 2.27664765e-005 
5.00000000e-001 2.40625000e+001 2.00000000e+001 5.96446652e-005 5.58798654e-005 4.02286281e-005 2.79758156e-005 
5.00000000e-001 2.84375000e+001 2.00000000e+001 1.33663671e-004 9.20557798e-005 5.96146881e-005 3.79213791e-005 
5.00000000e-001 3.28125000e+001 2.00000000e+001 2.55559810e-004 1.41367986e-004 8.51036358e-005 5.07740042e-005 
7.50000000e-001 2.18750000e+000 2.00000000e+001 2.88214663e-006 1.00284343e-005 1.08500859e-005 1.03791538e-005 
7.50000000e-001 6.56250000e+000 2.00000000e+001 3.63874347e-006 1.11475700e-005 1.16815336e-005 1.09365904e-005 
7.50000000e-001 1.09375000e+001 2.00000000e+001 5.65735714e-006 1.38173760e-005 1.36145761e-005 1.22119310e-005 
7.50000000e-001 1.53125000e+001 2.00000000e+001 1.00106575e-005 1.87104183e-005 1.70166196e-005 1.43883528e-005 
7.50000000e-001 1.96875000e+001 2.00000000e+001 1.97382368e-005 2.75743919e-005 2.28298001e-005 1.79342427e-005 
7.50000000e-001 2.40625000e+001 2.00000000e+001 4.38830906e-005 4.45645993e-005 3.30998379e-005 2.37694268e-005 
7.50000000e-001 2.84375000e+001 2.00000000e+001 1.36794644e-004 8.99768357e-005 5.74073546e-005 3.61630881e-005 
7.50000000e-001 3.28125000e+001 2.00000000e+001 3.44430967e-004 1.59345066e-004 9.13255788e-005 5.25123900e-005 
1.00000000e+000 2.18750000e+000 2.00000000e+001 8.25720773e-007 4.87487947e-006 6.29764306e-006 6.99185180e-006 
1.00000000e+000 6.56250000e+000 2.00000000e+001 1.17865416e-006 5.70117593e-006 7.00184609e-006 7.51132315e-006 
1.00000000e+000 1.09375000e+001 2.00000000e+001 2.23034618e-006 7.76145776e-006 8.68458910e-006 8.71877673e-006 
1.00000000e+000 1.53125000e+001 2.00000000e+001 4.86872742e-006 1.17911713e-005 1.17707034e-005 1.08324665e-005 
1.00000000e+000 1.96875000e+001 2.00000000e+001 1.19416946e-005 1.97465249e-005 1.73551338e-005 1.44083856e-005 
1.00000000e+000 2.40625000e+001 2.00000000e+001 3.35302577e-005 3.67705979e-005 2.80426457e-005 2.06463036e-005 
1.00000000e+000 2.84375000e+001 2.00000000e+001 1.43555131e-004 9.01212390e-005 5.66105654e-005 3.52031634e-005 
1.00000000e+000 3.28125000e+001 2.00000000e+001 4.98179594e-004 1.84907607e-004 1.00227427e-004 5.52736934e-005 
1.25000000e+000 2.18750000e+000 2.00000000e+001 2.39088288e-007 2.37829902e-006 3.66279818e-006 4.71508354e-006 
1.25000000e+000 6.56250000e+000 2.00000000e+001 3.91931687e-007 2.95027602e-006 4.22736592e-006 5.17963734e-006 
1.25000000e+000 1.09375000e+001 2.00000000e+001 9.09668196e-007 4.45210768e-006 5.62032927e-006 6.27962957e-006 
1.25000000e+000 1.53125000e+001 2.00000000e+001 2.44390609e-006 7.61664777e-006 8.29984714e-006 8.26205528e-006 
1.25000000e+000 1.96875000e+001 2.00000000e+001 7.42576881e-006 1.44846366e-005 1.34687606e-005 1.17577486e-005 
1.25000000e+000 2.40625000e+001 2.00000000e+001 2.61810608e-005 3.09581142e-005 2.42133351e-005 1.82234551e-005 
1.25000000e+000 2.84375000e+001 2.00000000e+001 1.53193018e-004 9.14642262e-005 5.65849051e-005 3.47236609e-005 
1.25000000e+000 3.28125000e+001 2.00000000e+001 7.74743596e-004 2.19736269e-004 1.11793108e-004 5.88955541e-005 
1.50000000e+000 2.18750000e+000 2.00000000e+001 6.99210050e-008 1.16446706e-006 2.13469336e-006 3.18311969e-006 
1.50000000e+000 6.56250000e+000 2.00000000e+001 1.33134621e-007 1.54308370e-006 2.56966642e-006 3.58562710e-006 
1.50000000e+000 1.09375000e+001 2.00000000e+001 3.79969460e-007 2.59738461e-006 3.68273407e-006 4.55903501e-006 
1.50000000e+000 1.53125000e+001 2.00000000e+001 1.25284427e-006 5.00917196e-006 5.94119625e-006 6.37130514e-006 
1.50000000e+000 1.96875000e+001 2.00000000e+001 4.70363154e-006 1.07992949e-005 1.06099358e-005 9.71333306e-006 
1.50000000e+000 2.40625000e+001 2.00000000e+001 2.07465635e-005 2.64063580e-005 2.11752128e-005 1.62741477e-005 
1.50000000e+000 2.84375000e+001 2.00000000e+001 1.65802413e-004 9.36205396e-005 5.70369986e-005 3.45492723e-005 
1.50000000e+000 3.28125000e+001 2.00000000e+001 1.29804754e-003 2.67115288e-004 1.26419644e-004 6.33452485e-005 
1.75000000e+000 2.18750000e+000 2.00000000e+001 2.06357848e-008 5.72166035e-007 1.24664033e-006 2.15120721e-006 
1.75000000e+000 6.56250000e+000 2.00000000e+001 4.60166031e-008 8.14827845e-007 1.57191482e-006 2.49139613e-006 
1.75000000e+000 1.09375000e+001 2.00000000e+001 1.61506361e-007 1.53608008e-006 2.43884322e-006 3.33373943e-006 
1.75000000e+000 1.53125000e+001 2.00000000e+001 6.52169798e-007 3.33842261e-006 4.30330722e-006 4.95892405e-006 
1.75000000e+000 1.96875000e+001 2.00000000e+001 3.02058910e-006 8.14582366e-006 8.45048957e-006 8.10243630e-006 
1.75000000e+000 2.40625000e+001 2.00000000e+001 1.66239444e-005 2.27311079e-005 1.86853305e-005 1.46596628e-005 
1.75000000e+000 2.84375000e+001 2.00000000e+001 1.81832104e-004 9.64428644e-005 5.78265607e-005 3.45810376e-005 
1.75000000e+000 3.28125000e+001 2.00000000e+001 2.34098424e-003 3.32226690e-004 1.44818559e-004 6.86707606e-005 
2.00000000e+000 2.18750000e+000 2.00000000e+001 6.14055227e-009 2.82107497e-007 7.29495760e-007 1.45537918e-006 
2.00000000e+000 6.56250000e+000 2.00000000e+001 1.61341155e-008 4.33950093e-007 9.67208930e-007 1.73723054e-006 
2.00000000e+000 1.09375000e+001 2.00000000e+001 6.95715630e-008 9.18450915e-007 1.62970556e-006 2.45349767e-006 
2.00000000e+000 1.53125000e+001 2.00000000e+001 3.43558130e-007 2.24757765e-006 3.14615368e-006 3.88969504e-006 
2.00000000e+000 1.96875000e+001 2.00000000e+001 1.96107957e-006 6.19839917e-006 6.78702443e-006 6.81078035e-006 
2.00000000e+000 2.40625000e+001 2.00000000e+001 1.34397235e-005 1.97029442e-005 1.65981517e-005 1.32920080e-005 
2.00000000e+000 2.84375000e+001 2.00000000e+001 2.02017832e-004 9.98841756e-005 5.88847655e-005 3.47617734e-005 
2.00000000e+000 3.28125000e+001 2.00000000e+001 4.52375451e-003 4.23003321e-004 1.68027574e-004 7.49787241e-005 
2.25000000e+000 2.18750000e+000 2.00000000e+001 1.84070059e-009 1.39558506e-007 4.27729776e-007 9.85673599e-007 
2.25000000e+000 6.56250000e+000 2.00000000e+001 5.72468368e-009 2.32862085e-007 5.98340545e-007 1.21543529e-006 
2.25000000e+000 1.09375000e+001 2.00000000e+001 3.02907143e-008 5.54082846e-007 1.09737291e-006 1.81607176e-006 
2.25000000e+000 1.53125000e+001 2.00000000e+001 1.82754034e-007 1.52526340e-006 2.31738648e-006 3.07092739e-006 
2.25000000e+000 1.96875000e+001 2.00000000e+001 1.28482089e-006 4.74925913e-006 5.48673487e-006 5.76039423e-006 
2.25000000e+000 2.40625000e+001 2.00000000e+001 1.09464616e-005 1.71721636e-005 1.48202015e-005 1.21131998e-005 
2.25000000e+000 2.84375000e+001 2.00000000e+001 2.27434457e-004 1.03946788e-004 6.01783299e-005 3.50577401e-005 
2.25000000e+000 3.28125000e+001 2.00000000e+001 9.29499284e-003 5.51620653e-004 1.97488707e-004 8.24268788e-005 
2.50000000e+000 2.18750000e+000 2.00000000e+001 5.55385309e-010 6.92609229e-008 2.51284967e-007 6.68268229e-007 
2.50000000e+000 6.56250000e+000 2.00000000e+001 2.05180309e-009 1.25798404e-007 3.71980438e-007 8.53075985e-007 
2.50000000e+000 1.09375000e+001 2.00000000e+001 1.33053658e-008 3.36733728e-007 7.43742510e-007 1.35113322e-006 
2.50000000e+000 1.53125000e+001 2.00000000e+001 9.80178648e-008 1.04178024e-006 1.71732765e-006 2.43782154e-006 
2.50000000e+000 1.96875000e+001 2.00000000e+001 8.48337201e-007 3.65958526e-006 4.45896093e-006 4.89646466e-006 
2.50000000e+000 2.40625000e+001 2.00000000e+001 8.97281655e-006 1.50344962e-005 1.32876679e-005 1.10835319e-005 
2.50000000e+000 2.84375000e+001 2.00000000e+001 2.59606272e-004 1.08662341e-004 6.16930126e-005 3.54487360e-005 
2.50000000e+000 3.28125000e+001 2.00000000e+001 2.01168774e-002 7.36948295e-004 2.35185018e-004 9.12251060e-005 
END