TITLE="DIR08_SCB_EB_E_WD000.dat"
VARIABLES= "Density" "Radius" "Height" "0.1053" "0.356" "0.6617" "1.3325" 
ZONE T="3D Data" I=11 J=8 K=3 F=POINT
0.00000000e+000 8.75000000e+000 0.00000000e+000 3.16857723e-004 2.13885505e-004 1.37124002e-004 8.57474190e-005 
0.00000000e+000 1.51554446e+001 0.00000000e+000 2.29427416e-004 1.55534361e-004 1.01039092e-004 6.47544342e-005 
0.00000000e+000 1.95655948e+001 0.00000000e+000 1.94936579e-004 1.32813943e-004 8.61722469e-005 5.54051771e-005 
0.00000000e+000 2.31503240e+001 0.00000000e+000 1.90641279e-004 1.29977360e-004 8.38069077e-005 5.33521027e-005 
0.00000000e+000 2.62500000e+001 0.00000000e+000 1.95249924e-004 1.33011683e-004 8.54513195e-005 5.40006906e-005 
0.00000000e+000 2.90204669e+001 0.00000000e+000 2.04247419e-004 1.38966993e-004 8.90367933e-005 5.59848587e-005 
0.00000000e+000 3.15485737e+001 0.00000000e+000 2.16126284e-004 1.46780323e-004 9.38484487e-005 5.87980172e-005 
0.00000000e+000 3.38886043e+001 0.00000000e+000 2.30868042e-004 1.56523314e-004 9.99022679e-005 6.24159987e-005 
2.50000000e-001 8.75000000e+000 0.00000000e+000 1.01200043e-004 1.10602769e-004 8.33735180e-005 5.97395415e-005 
2.50000000e-001 1.51554446e+001 0.00000000e+000 8.87437877e-005 8.80125489e-005 6.53852062e-005 4.70397859e-005 
2.50000000e-001 1.95655948e+001 0.00000000e+000 9.02098983e-005 8.20259462e-005 5.92945411e-005 4.19596709e-005 
2.50000000e-001 2.31503240e+001 0.00000000e+000 1.03662478e-004 8.73849170e-005 6.13101783e-005 4.21624805e-005 
2.50000000e-001 2.62500000e+001 0.00000000e+000 1.26452768e-004 9.84455752e-005 6.70634554e-005 4.48306403e-005 
2.50000000e-001 2.90204669e+001 0.00000000e+000 1.63220884e-004 1.16132977e-004 7.64848402e-005 4.95581777e-005 
2.50000000e-001 3.15485737e+001 0.00000000e+000 1.97323492e-004 1.33161327e-004 8.58933037e-005 5.45475820e-005 
2.50000000e-001 3.38886043e+001 0.00000000e+000 2.30181671e-004 1.49954575e-004 9.54251567e-005 5.98074889e-005 
5.00000000e-001 8.75000000e+000 0.00000000e+000 3.47109955e-005 5.86029323e-005 5.14006599e-005 4.19252855e-005 
5.00000000e-001 1.51554446e+001 0.00000000e+000 4.10036702e-005 5.35229155e-005 4.41688924e-005 3.49729369e-005 
5.00000000e-001 1.95655948e+001 0.00000000e+000 5.26641177e-005 5.63514835e-005 4.36069267e-005 3.29861521e-005 
5.00000000e-001 2.31503240e+001 0.00000000e+000 7.23315699e-005 6.64971833e-005 4.86061355e-005 3.49208819e-005 
5.00000000e-001 2.62500000e+001 0.00000000e+000 1.04921920e-004 8.31797703e-005 5.75207699e-005 3.92694852e-005 
5.00000000e-001 2.90204669e+001 0.00000000e+000 1.62691568e-004 1.10293577e-004 7.18050634e-005 4.63733233e-005 
5.00000000e-001 3.15485737e+001 0.00000000e+000 2.18382276e-004 1.35231720e-004 8.51152476e-005 5.32295223e-005 
5.00000000e-001 3.38886043e+001 0.00000000e+000 2.75482137e-004 1.59221094e-004 9.79771443e-005 6.00143574e-005 
7.50000000e-001 8.75000000e+000 0.00000000e+000 1.26539132e-005 3.17663828e-005 3.21131509e-005 2.96332694e-005 
7.50000000e-001 1.51554446e+001 0.00000000e+000 2.07682297e-005 3.43073082e-005 3.08943806e-005 2.65353019e-005 
7.50000000e-001 1.95655948e+001 0.00000000e+000 3.34645503e-005 4.12594431e-005 3.36037607e-005 2.67137463e-005 
7.50000000e-001 2.31503240e+001 0.00000000e+000 5.43825045e-005 5.39454665e-005 4.05203024e-005 2.99319977e-005 
7.50000000e-001 2.62500000e+001 0.00000000e+000 9.26100467e-005 7.45705362e-005 5.18360655e-005 3.56559761e-005 
7.50000000e-001 2.90204669e+001 0.00000000e+000 1.69281276e-004 1.09927860e-004 7.03929642e-005 4.48789751e-005 
7.50000000e-001 3.15485737e+001 0.00000000e+000 2.52384340e-004 1.43112525e-004 8.75224988e-005 5.34898582e-005 
7.50000000e-001 3.38886043e+001 0.00000000e+000 3.50328288e-004 1.76124748e-004 1.04135622e-004 6.18557479e-005 
1.00000000e+000 8.75000000e+000 0.00000000e+000 4.84760228e-006 1.75823215e-005 2.03168037e-005 2.10896327e-005 
1.00000000e+000 1.51554446e+001 0.00000000e+000 1.10012382e-005 2.27929866e-005 2.21976725e-005 2.04839903e-005 
1.00000000e+000 1.95655948e+001 0.00000000e+000 2.19547824e-005 3.12942170e-005 2.67026104e-005 2.21281666e-005 
1.00000000e+000 2.31503240e+001 0.00000000e+000 4.19989500e-005 4.51655690e-005 3.47949411e-005 2.62754047e-005 
1.00000000e+000 2.62500000e+001 0.00000000e+000 8.35140183e-005 6.86378187e-005 4.79608074e-005 3.31270027e-005 
1.00000000e+000 2.90204669e+001 0.00000000e+000 1.78573861e-004 1.11627888e-004 7.04347639e-005 4.42916139e-005 
1.00000000e+000 3.15485737e+001 0.00000000e+000 2.98672814e-004 1.54118183e-004 9.15969391e-005 5.46555122e-005 
1.00000000e+000 3.38886043e+001 0.00000000e+000 4.68202889e-004 1.99172208e-004 1.12741801e-004 6.47689832e-005 
1.25000000e+000 8.75000000e+000 0.00000000e+000 1.93158296e-006 9.91585361e-006 1.30054719e-005 1.51086123e-005 
1.25000000e+000 1.51554446e+001 0.00000000e+000 5.96828964e-006 1.55064501e-005 1.62721768e-005 1.60407744e-005 
1.25000000e+000 1.95655948e+001 0.00000000e+000 1.46265297e-005 2.42036544e-005 2.16388372e-005 1.86376553e-005 
1.25000000e+000 2.31503240e+001 0.00000000e+000 3.28768060e-005 3.84395454e-005 3.04018740e-005 2.34424623e-005 
1.25000000e+000 2.62500000e+001 0.00000000e+000 7.61533231e-005 6.40067661e-005 4.50183204e-005 3.12264972e-005 
1.25000000e+000 2.90204669e+001 0.00000000e+000 1.89903522e-004 1.14315262e-004 7.11927142e-005 4.42100078e-005 
1.25000000e+000 3.15485737e+001 0.00000000e+000 3.61227108e-004 1.67652775e-004 9.67749272e-005 5.63919759e-005 
1.25000000e+000 3.38886043e+001 0.00000000e+000 6.59683153e-004 2.29101971e-004 1.23546992e-004 6.85026460e-005 
1.50000000e+000 8.75000000e+000 0.00000000e+000 7.93848866e-007 5.68602136e-006 8.41609043e-006 1.08921568e-005 
1.50000000e+000 1.51554446e+001 0.00000000e+000 3.28612053e-006 1.07166321e-005 1.21056508e-005 1.27089054e-005 
1.50000000e+000 1.95655948e+001 0.00000000e+000 9.83756965e-006 1.89336308e-005 1.77566496e-005 1.58888332e-005 
1.50000000e+000 2.31503240e+001 0.00000000e+000 2.59606743e-005 3.30257882e-005 2.68443769e-005 2.11455990e-005 
1.50000000e+000 2.62500000e+001 0.00000000e+000 6.99493681e-005 6.01364759e-005 4.26118337e-005 2.97082174e-005 
1.50000000e+000 2.90204669e+001 0.00000000e+000 2.03329432e-004 1.17621648e-004 7.23545292e-005 4.44252127e-005 
1.50000000e+000 3.15485737e+001 0.00000000e+000 4.46894325e-004 1.83805090e-004 1.02874946e-004 5.85351580e-005 
1.50000000e+000 3.38886043e+001 0.00000000e+000 9.84674775e-004 2.67799741e-004 1.36716755e-004 7.29669949e-005 
1.75000000e+000 8.75000000e+000 0.00000000e+000 3.34326373e-007 3.30853840e-006 5.50068527e-006 7.89943295e-006 
1.75000000e+000 1.51554446e+001 0.00000000e+000 1.82858454e-006 7.48635722e-006 9.10403151e-006 1.01644231e-005 
1.75000000e+000 1.95655948e+001 0.00000000e+000 6.66298709e-006 1.49178239e-005 1.46912735e-005 1.36645567e-005 
1.75000000e+000 2.31503240e+001 0.00000000e+000 2.06310144e-005 2.85484160e-005 2.38634915e-005 1.92174613e-005 
1.75000000e+000 2.62500000e+001 0.00000000e+000 6.45966632e-005 5.67783188e-005 4.05483753e-005 2.84355570e-005 
1.75000000e+000 2.90204669e+001 0.00000000e+000 2.19194428e-004 1.21415635e-004 7.37820877e-005 4.48262456e-005 
1.75000000e+000 3.15485737e+001 0.00000000e+000 5.66348620e-004 2.02959667e-004 1.09879544e-004 6.10083173e-005 
1.75000000e+000 3.38886043e+001 0.00000000e+000 1.56273729e-003 3.18215702e-004 1.52660308e-004 7.81614119e-005 
2.00000000e+000 8.75000000e+000 0.00000000e+000 1.43570424e-007 1.94990740e-006 3.62795220e-006 5.76135692e-006 
2.00000000e+000 1.51554446e+001 0.00000000e+000 1.02609788e-006 5.27000964e-006 6.90190162e-006 8.19109771e-006 
2.00000000e+000 1.95655948e+001 0.00000000e+000 4.53834861e-006 1.18122400e-005 1.22234981e-005 1.18268235e-005 
2.00000000e+000 2.31503240e+001 0.00000000e+000 1.64792766e-005 2.47858495e-005 2.13116994e-005 1.75571370e-005 
2.00000000e+000 2.62500000e+001 0.00000000e+000 5.99041197e-005 5.37990223e-005 3.87257864e-005 2.73301751e-005 
2.00000000e+000 2.90204669e+001 0.00000000e+000 2.38064519e-004 1.25656083e-004 7.54120179e-005 4.53528390e-005 
2.00000000e+000 3.15485737e+001 0.00000000e+000 7.36194415e-004 2.25699556e-004 1.17851782e-004 6.37807763e-005 
2.00000000e+000 3.38886043e+001 0.00000000e+000 2.63850903e-003 3.84681072e-004 1.71989670e-004 8.41399454e-005 
2.25000000e+000 8.75000000e+000 0.00000000e+000 6.26326015e-008 1.16206880e-006 2.41256365e-006 4.22428420e-006 
2.25000000e+000 1.51554446e+001 0.00000000e+000 5.79871303e-007 3.73121922e-006 5.26431724e-006 6.64108039e-006 
2.25000000e+000 1.95655948e+001 0.00000000e+000 3.10605573e-006 9.38801991e-006 1.02112429e-005 1.02845497e-005 
2.25000000e+000 2.31503240e+001 0.00000000e+000 1.32194483e-005 2.15912839e-005 1.90969414e-005 1.61011847e-005 
2.25000000e+000 2.62500000e+001 0.00000000e+000 5.57397652e-005 5.11174056e-005 3.70849064e-005 2.63453522e-005 
2.25000000e+000 2.90204669e+001 0.00000000e+000 2.60748947e-004 1.30343195e-004 7.72151286e-005 4.59715158e-005 
2.25000000e+000 3.15485737e+001 0.00000000e+000 9.82502968e-004 2.52801797e-004 1.26903886e-004 6.68472935e-005 
2.25000000e+000 3.38886043e+001 0.00000000e+000 4.72319486e-003 4.73521282e-004 1.95537960e-004 9.09960441e-005 
2.50000000e+000 8.75000000e+000 0.00000000e+000 2.76788239e-008 6.99311142e-007 1.61631835e-006 3.11268385e-006 
2.50000000e+000 1.51554446e+001 0.00000000e+000 3.29727460e-007 2.65376400e-006 4.03422494e-006 5.41080681e-006 
2.50000000e+000 1.95655948e+001 0.00000000e+000 2.13476897e-006 7.48352148e-006 8.55615889e-006 8.97516167e-006 
2.50000000e+000 2.31503240e+001 0.00000000e+000 1.06440615e-005 1.88593941e-005 1.71568200e-005 1.48078305e-005 
2.50000000e+000 2.62500000e+001 0.00000000e+000 5.20071213e-005 4.86790578e-005 3.55884338e-005 2.54519740e-005 
2.50000000e+000 2.90204669e+001 0.00000000e+000 2.88350909e-004 1.35501074e-004 7.91792057e-005 4.66633117e-005 
2.50000000e+000 3.15485737e+001 0.00000000e+000 1.34663328e-003 2.85270696e-004 1.37186989e-004 7.02177383e-005 
2.50000000e+000 3.38886043e+001 0.00000000e+000 8.90350328e-003 5.94034619e-004 2.24413725e-004 9.88573322e-005 
0.00000000e+000 8.75000000e+000 1.00000000e+001 1.87912696e-004 1.28072316e-004 8.37010911e-005 5.41725674e-005 
0.00000000e+000 1.51554446e+001 1.00000000e+001 1.47986230e-004 1.02096752e-004 6.71530608e-005 4.40622333e-005 
0.00000000e+000 1.95655948e+001 1.00000000e+001 1.37796094e-004 9.55920750e-005 6.23207365e-005 4.04990118e-005 
0.00000000e+000 2.31503240e+001 1.00000000e+001 1.42706182e-004 9.89100863e-005 6.38952300e-005 4.08297220e-005 
0.00000000e+000 2.62500000e+001 1.00000000e+001 1.52915163e-004 1.05698775e-004 6.78798169e-005 4.28631464e-005 
0.00000000e+000 2.90204669e+001 1.00000000e+001 1.66393135e-004 1.14591453e-004 7.32015100e-005 4.58007933e-005 
0.00000000e+000 3.15485737e+001 1.00000000e+001 1.81848494e-004 1.24836031e-004 7.95006845e-005 4.94204350e-005 
0.00000000e+000 3.38886043e+001 1.00000000e+001 2.00711670e-004 1.37291229e-004 8.71790989e-005 5.39223725e-005 
2.50000000e-001 8.75000000e+000 1.00000000e+001 5.72982178e-005 6.45337207e-005 4.99370501e-005 3.72524433e-005 
2.50000000e-001 1.51554446e+001 1.00000000e+001 5.15414782e-005 5.45038972e-005 4.16682379e-005 3.11185220e-005 
2.50000000e-001 1.95655948e+001 1.00000000e+001 5.56571917e-005 5.47596906e-005 4.05779692e-005 2.95307947e-005 
2.50000000e-001 2.31503240e+001 1.00000000e+001 6.81233502e-005 6.18270436e-005 4.42595240e-005 3.10361174e-005 
2.50000000e-001 2.62500000e+001 1.00000000e+001 9.00027907e-005 7.39986133e-005 5.10294439e-005 3.44603570e-005 
2.50000000e-001 2.90204669e+001 1.00000000e+001 1.28194066e-004 9.34685314e-005 6.15965329e-005 3.98484242e-005 
2.50000000e-001 3.15485737e+001 1.00000000e+001 1.63277486e-004 1.11919453e-004 7.19654698e-005 4.53749406e-005 
2.50000000e-001 3.38886043e+001 1.00000000e+001 1.98400361e-004 1.30628924e-004 8.26743798e-005 5.12730499e-005 
5.00000000e-001 8.75000000e+000 1.00000000e+001 1.87809842e-005 3.33180722e-005 3.02074350e-005 2.58036757e-005 
5.00000000e-001 1.51554446e+001 1.00000000e+001 2.17540641e-005 3.13074373e-005 2.69894936e-005 2.24874942e-005 
5.00000000e-001 1.95655948e+001 1.00000000e+001 2.91168260e-005 3.49936967e-005 2.82475106e-005 2.23455271e-005 
5.00000000e-001 2.31503240e+001 1.00000000e+001 4.30526816e-005 4.39967014e-005 3.32927301e-005 2.47402904e-005 
5.00000000e-001 2.62500000e+001 1.00000000e+001 7.02797711e-005 5.97490493e-005 4.21494666e-005 2.93091745e-005 
5.00000000e-001 2.90204669e+001 1.00000000e+001 1.26920939e-004 8.76944416e-005 5.70848322e-005 3.68198821e-005 
5.00000000e-001 3.15485737e+001 1.00000000e+001 1.81824447e-004 1.13274642e-004 7.09223315e-005 4.39784090e-005 
5.00000000e-001 3.38886043e+001 1.00000000e+001 2.42247954e-004 1.38860495e-004 8.46707075e-005 5.12021234e-005 
7.50000000e-001 8.75000000e+000 1.00000000e+001 6.56008597e-006 1.76046752e-005 1.85192029e-005 1.80011830e-005 
7.50000000e-001 1.51554446e+001 1.00000000e+001 1.02807388e-005 1.90583741e-005 1.81399777e-005 1.65937972e-005 
7.50000000e-001 1.95655948e+001 1.00000000e+001 1.70902526e-005 2.40725401e-005 2.06983961e-005 1.74457589e-005 
7.50000000e-001 2.31503240e+001 1.00000000e+001 3.01257676e-005 3.37545672e-005 2.64939047e-005 2.04645222e-005 
7.50000000e-001 2.62500000e+001 1.00000000e+001 5.96269332e-005 5.17660737e-005 3.68418568e-005 2.59420531e-005 
7.50000000e-001 2.90204669e+001 1.00000000e+001 1.32738335e-004 8.70542102e-005 5.55897179e-005 3.53378981e-005 
7.50000000e-001 3.15485737e+001 1.00000000e+001 2.14655573e-004 1.20267382e-004 7.28671464e-005 4.40346819e-005 
7.50000000e-001 3.38886043e+001 1.00000000e+001 3.24470279e-004 1.55240476e-004 9.02532472e-005 5.26826772e-005 
1.00000000e+000 8.75000000e+000 1.00000000e+001 2.41617421e-006 9.50462294e-006 1.14999774e-005 1.26454325e-005 
1.00000000e+000 1.51554446e+001 1.00000000e+001 5.16195066e-006 1.21073542e-005 1.25658032e-005 1.24730730e-005 
1.00000000e+000 1.95655948e+001 1.00000000e+001 1.05531388e-005 1.73339797e-005 1.57342200e-005 1.39685082e-005 
1.00000000e+000 2.31503240e+001 1.00000000e+001 2.19856475e-005 2.69885272e-005 2.18590763e-005 1.73974751e-005 
1.00000000e+000 2.62500000e+001 1.00000000e+001 5.22309538e-005 4.64126387e-005 3.32633396e-005 2.35879115e-005 
1.00000000e+000 2.90204669e+001 1.00000000e+001 1.41526926e-004 8.84509697e-005 5.54797228e-005 3.47005761e-005 
1.00000000e+000 3.15485737e+001 1.00000000e+001 2.62835390e-004 1.30600175e-004 7.64690990e-005 4.49479453e-005 
1.00000000e+000 3.38886043e+001 1.00000000e+001 4.71879625e-004 1.79184580e-004 9.85380493e-005 5.52390579e-005 
1.25000000e+000 8.75000000e+000 1.00000000e+001 9.28842860e-007 5.23341437e-006 7.22823545e-006 8.94297224e-006 
1.25000000e+000 1.51554446e+001 1.00000000e+001 2.68116586e-006 7.92633086e-006 8.91377472e-006 9.52598223e-006 
1.25000000e+000 1.95655948e+001 1.00000000e+001 6.69219430e-006 1.28351132e-005 1.22685159e-005 1.14071029e-005 
1.25000000e+000 2.31503240e+001 1.00000000e+001 1.64131549e-005 2.20915293e-005 1.84525071e-005 1.50845661e-005 
1.25000000e+000 2.62500000e+001 1.00000000e+001 4.65474664e-005 4.23773641e-005 3.06039680e-005 2.18334670e-005 
1.25000000e+000 2.90204669e+001 1.00000000e+001 1.52723343e-004 9.08769551e-005 5.60782537e-005 3.45444947e-005 
1.25000000e+000 3.15485737e+001 1.00000000e+001 3.32862962e-004 1.43881861e-004 8.12491659e-005 4.64229668e-005 
1.25000000e+000 3.38886043e+001 1.00000000e+001 7.44903495e-004 2.12527244e-004 1.09507973e-004 5.86789546e-005 
1.50000000e+000 8.75000000e+000 1.00000000e+001 3.69459300e-007 2.93302476e-006 4.59500024e-006 6.36550665e-006 
1.50000000e+000 1.51554446e+001 1.00000000e+001 1.42247499e-006 5.29920844e-006 6.43984177e-006 7.37359673e-006 
1.50000000e+000 1.95655948e+001 1.00000000e+001 4.31584161e-006 9.67304833e-006 9.73485289e-006 9.45729183e-006 
1.50000000e+000 2.31503240e+001 1.00000000e+001 1.24367114e-005 1.83473056e-005 1.58096056e-005 1.32646171e-005 
1.50000000e+000 2.62500000e+001 1.00000000e+001 4.19554220e-005 3.91195343e-005 2.84852715e-005 2.04516489e-005 
1.50000000e+000 2.90204669e+001 1.00000000e+001 1.66540473e-004 9.39816954e-005 5.70928924e-005 3.46779491e-005 
1.50000000e+000 3.15485737e+001 1.00000000e+001 4.35865203e-004 1.60402842e-004 8.70797349e-005 4.83174528e-005 
1.50000000e+000 3.38886043e+001 1.00000000e+001 1.27214790e-003 2.58813451e-004 1.23601601e-004 6.29637260e-005 
1.75000000e+000 8.75000000e+000 1.00000000e+001 1.50999920e-007 1.66983799e-006 2.95185167e-006 4.55892776e-006 
1.75000000e+000 1.51554446e+001 1.00000000e+001 7.66034210e-007 3.59586147e-006 4.71791698e-006 5.77174046e-006 
1.75000000e+000 1.95655948e+001 1.00000000e+001 2.81728593e-006 7.37678038e-006 7.81926869e-006 7.93145710e-006 
1.75000000e+000 2.31503240e+001 1.00000000e+001 9.52713107e-006 1.53880501e-005 1.36821011e-005 1.17829372e-005 
1.75000000e+000 2.62500000e+001 1.00000000e+001 3.81302120e-005 3.63803830e-005 2.67166761e-005 1.93138761e-005 
1.75000000e+000 2.90204669e+001 1.00000000e+001 1.83540204e-004 9.76439758e-005 5.83921257e-005 3.49976723e-005 
1.75000000e+000 3.15485737e+001 1.00000000e+001 5.89843384e-004 1.80804370e-004 9.39934066e-005 5.05688859e-005 
1.75000000e+000 3.38886043e+001 1.00000000e+001 2.33353445e-003 3.23619116e-004 1.41596547e-004 6.81468991e-005 
2.00000000e+000 8.75000000e+000 1.00000000e+001 6.30714789e-008 9.63959077e-007 1.91466534e-006 3.28426929e-006 
2.00000000e+000 1.51554446e+001 1.00000000e+001 4.17301263e-007 2.46661840e-006 3.49352745e-006 4.55980202e-006 
2.00000000e+000 1.95655948e+001 1.00000000e+001 1.85655419e-006 5.67354743e-006 6.33595909e-006 6.71034942e-006 
2.00000000e+000 2.31503240e+001 1.00000000e+001 7.36116240e-006 1.29992634e-005 1.19262598e-005 1.05445921e-005 
2.00000000e+000 2.62500000e+001 1.00000000e+001 3.48753583e-005 3.40175687e-005 2.51939038e-005 1.83447021e-005 
2.00000000e+000 2.90204669e+001 1.00000000e+001 2.04577653e-004 1.01835354e-004 5.99155692e-005 3.54468044e-005 
2.00000000e+000 3.15485737e+001 1.00000000e+001 8.23986901e-004 2.06014299e-004 1.02110468e-004 5.31580670e-005 
2.00000000e+000 3.38886043e+001 1.00000000e+001 4.55350998e-003 4.15469738e-004 1.64621591e-004 7.43469459e-005 
2.25000000e+000 8.75000000e+000 1.00000000e+001 2.68131107e-008 5.63298046e-007 1.25291637e-006 2.37916256e-006 
2.25000000e+000 1.51554446e+001 1.00000000e+001 2.29481611e-007 1.70595618e-006 2.60836535e-006 3.62983474e-006 
2.25000000e+000 1.95655948e+001 1.00000000e+001 1.23298137e-006 4.39185026e-006 5.16771689e-006 5.71562833e-006 
2.25000000e+000 2.31503240e+001 1.00000000e+001 5.72792480e-006 1.10428980e-005 1.04520796e-005 9.48896027e-006 
2.25000000e+000 2.62500000e+001 1.00000000e+001 3.20613012e-005 3.19434417e-005 2.38549169e-005 1.74980391e-005 
2.25000000e+000 2.90204669e+001 1.00000000e+001 2.30840690e-004 1.06573238e-004 6.16366103e-005 3.59934084e-005 
2.25000000e+000 3.15485737e+001 1.00000000e+001 1.18606327e-003 2.37276602e-004 1.11613403e-004 5.60909046e-005 
2.25000000e+000 3.38886043e+001 1.00000000e+001 9.35523028e-003 5.47422132e-004 1.94242403e-004 8.17379993e-005 
2.50000000e+000 8.75000000e+000 1.00000000e+001 1.15651604e-008 3.32708617e-007 8.26494883e-007 1.73252751e-006 
2.50000000e+000 1.51554446e+001 1.00000000e+001 1.27214861e-007 1.18753521e-006 1.96019997e-006 2.90768284e-006 
2.50000000e+000 1.95655948e+001 1.00000000e+001 8.24262907e-007 3.41729726e-006 4.23627834e-006 4.89402622e-006 
2.50000000e+000 2.31503240e+001 1.00000000e+001 4.48389292e-006 9.42367206e-006 9.19915000e-006 8.57566569e-006 
2.50000000e+000 2.62500000e+001 1.00000000e+001 2.95979516e-005 3.00993009e-005 2.26598736e-005 1.67444839e-005 
2.50000000e+000 2.90204669e+001 1.00000000e+001 2.63940333e-004 1.11903668e-004 6.35462237e-005 3.66193206e-005 
2.50000000e+000 3.15485737e+001 1.00000000e+001 1.75498737e-003 2.76228856e-004 1.22741238e-004 5.93893829e-005 
2.50000000e+000 3.38886043e+001 1.00000000e+001 2.00413941e-002 7.39626744e-004 2.32609846e-004 9.05507653e-005 
0.00000000e+000 8.75000000e+000 2.00000000e+001 9.90105294e-005 6.89140296e-005 4.45104250e-005 2.87229309e-005 
0.00000000e+000 1.51554446e+001 2.00000000e+001 1.17374746e-004 8.13945155e-005 5.20745168e-005 3.27893687e-005 
0.00000000e+000 1.95655948e+001 2.00000000e+001 1.35069633e-004 9.31370470e-005 5.92800690e-005 3.68436198e-005 
0.00000000e+000 2.31503240e+001 2.00000000e+001 1.53610790e-004 1.05350812e-004 6.68329933e-005 4.12378391e-005 
0.00000000e+000 2.62500000e+001 2.00000000e+001 1.73443150e-004 1.18357808e-004 7.48886389e-005 4.59957286e-005 
0.00000000e+000 2.90204669e+001 2.00000000e+001 1.93578354e-004 1.31538235e-004 8.30642685e-005 5.08649727e-005 
0.00000000e+000 3.15485737e+001 2.00000000e+001 2.15138561e-004 1.45644396e-004 9.18328506e-005 5.61184759e-005 
0.00000000e+000 3.38886043e+001 2.00000000e+001 2.39591980e-004 1.61648318e-004 1.01800895e-004 6.21181244e-005 
2.50000000e-001 8.75000000e+000 2.00000000e+001 2.90777163e-005 3.39962144e-005 2.60915467e-005 1.94582972e-005 
2.50000000e-001 1.51554446e+001 2.00000000e+001 4.11945610e-005 4.38330029e-005 3.24390313e-005 2.31103143e-005 
2.50000000e-001 1.95655948e+001 2.00000000e+001 5.68729313e-005 5.50960773e-005 3.95044645e-005 2.71957109e-005 
2.50000000e-001 2.31503240e+001 2.00000000e+001 7.83404879e-005 6.90358230e-005 4.79868336e-005 3.20740707e-005 
2.50000000e-001 2.62500000e+001 2.00000000e+001 1.11291452e-004 8.79689277e-005 5.89956647e-005 3.82066794e-005 
2.50000000e-001 2.90204669e+001 2.00000000e+001 1.63951744e-004 1.14591448e-004 7.36986814e-005 4.60304298e-005 
2.50000000e-001 3.15485737e+001 2.00000000e+001 2.14781607e-004 1.40026844e-004 8.78919388e-005 5.37213107e-005 
2.50000000e-001 3.38886043e+001 2.00000000e+001 2.69461663e-004 1.66363840e-004 1.02620990e-004 6.17959041e-005 
5.00000000e-001 8.75000000e+000 2.00000000e+001 9.13827945e-006 1.71613043e-005 1.54979071e-005 1.32748629e-005 
5.00000000e-001 1.51554446e+001 2.00000000e+001 1.67442184e-005 2.49873230e-005 2.09124533e-005 1.66029761e-005 
5.00000000e-001 1.95655948e+001 2.00000000e+001 2.88961209e-005 3.53230932e-005 2.76847497e-005 2.06671732e-005 
5.00000000e-001 2.31503240e+001 2.00000000e+001 4.91191897e-005 4.98156601e-005 3.66707527e-005 2.58917716e-005 
5.00000000e-001 2.62500000e+001 2.00000000e+001 8.81255594e-005 7.27762461e-005 4.99329728e-005 3.31712751e-005 
5.00000000e-001 2.90204669e+001 2.00000000e+001 1.66924520e-004 1.10745289e-004 7.03084248e-005 4.36390334e-005 
5.00000000e-001 3.15485737e+001 2.00000000e+001 2.53320157e-004 1.47585800e-004 8.97351978e-005 5.36284992e-005 
5.00000000e-001 3.38886043e+001 2.00000000e+001 3.67153471e-004 1.87887346e-004 1.10204857e-004 6.39976222e-005 
7.50000000e-001 8.75000000e+000 2.00000000e+001 3.04542004e-006 8.85258369e-006 9.32310835e-006 9.11874985e-006 
7.50000000e-001 1.51554446e+001 2.00000000e+001 7.44290597e-006 1.48935348e-005 1.38791303e-005 1.21352420e-005 
7.50000000e-001 1.95655948e+001 2.00000000e+001 1.60698871e-005 2.39078716e-005 2.01542443e-005 1.60905592e-005 
7.50000000e-001 2.31503240e+001 2.00000000e+001 3.34175028e-005 3.80318738e-005 2.92303072e-005 2.15046100e-005 
7.50000000e-001 2.62500000e+001 2.00000000e+001 7.46156509e-005 6.35164967e-005 4.41104462e-005 2.96998909e-005 
7.50000000e-001 2.90204669e+001 2.00000000e+001 1.77655585e-004 1.11658964e-004 6.95954466e-005 4.25794649e-005 
7.50000000e-001 3.15485737e+001 2.00000000e+001 3.16376000e-004 1.61735277e-004 9.46455903e-005 5.49003747e-005 
7.50000000e-001 3.38886043e+001 2.00000000e+001 5.58681301e-004 2.23048929e-004 1.22724021e-004 6.80004379e-005 
1.00000000e+000 8.75000000e+000 2.00000000e+001 1.06552858e-006 4.65864246e-006 5.67659025e-006 6.30570410e-006 
1.00000000e+000 1.51554446e+001 2.00000000e+001 3.48870240e-006 9.17944432e-006 9.43345610e-006 9.00547257e-006 
1.00000000e+000 1.95655948e+001 2.00000000e+001 9.35923205e-006 1.67640090e-005 1.50857599e-005 1.27749030e-005 
1.00000000e+000 2.31503240e+001 2.00000000e+001 2.36201724e-005 3.00031769e-005 2.39562058e-005 1.82432661e-005 
1.00000000e+000 2.62500000e+001 2.00000000e+001 6.50088357e-005 5.69818065e-005 3.99622921e-005 2.71535479e-005 
1.00000000e+000 2.90204669e+001 2.00000000e+001 1.92573246e-004 1.14696261e-004 7.02024162e-005 4.22764006e-005 
1.00000000e+000 3.15485737e+001 2.00000000e+001 4.12001253e-004 1.81049117e-004 1.01641652e-004 5.70751210e-005 
1.00000000e+000 3.38886043e+001 2.00000000e+001 9.41586768e-004 2.74854536e-004 1.40149040e-004 7.35443750e-005 
1.25000000e+000 8.75000000e+000 2.00000000e+001 3.87793974e-007 2.49643044e-006 3.49574136e-006 4.38856707e-006 
1.25000000e+000 1.51554446e+001 2.00000000e+001 1.69065346e-006 5.79933975e-006 6.53577934e-006 6.77143495e-006 
1.25000000e+000 1.95655948e+001 2.00000000e+001 5.60221237e-006 1.20325105e-005 1.15210961e-005 1.03014041e-005 
1.25000000e+000 2.31503240e+001 2.00000000e+001 1.70709982e-005 2.41493318e-005 1.99999368e-005 1.57198469e-005 
1.25000000e+000 2.62500000e+001 2.00000000e+001 5.75692107e-005 5.19237586e-005 3.67654249e-005 2.51801997e-005 
1.25000000e+000 2.90204669e+001 2.00000000e+001 2.11452715e-004 1.18967824e-004 7.15486572e-005 4.24263347e-005 
1.25000000e+000 3.15485737e+001 2.00000000e+001 5.58164062e-004 2.05840402e-004 1.10454328e-004 5.99345169e-005 
1.25000000e+000 3.38886043e+001 2.00000000e+001 1.75262727e-003 3.50407209e-004 1.63431181e-004 8.06299793e-005 
1.50000000e+000 8.75000000e+000 2.00000000e+001 1.45674054e-007 1.35969040e-006 2.17559865e-006 3.07318421e-006 
1.50000000e+000 1.51554446e+001 2.00000000e+001 8.38218727e-007 3.73174623e-006 4.59774328e-006 5.14930381e-006 
1.50000000e+000 1.95655948e+001 2.00000000e+001 3.41622514e-006 8.77614168e-006 8.92845868e-006 8.40932289e-006 
1.50000000e+000 2.31503240e+001 2.00000000e+001 1.25262772e-005 1.96969547e-005 1.69100639e-005 1.37024006e-005 
1.50000000e+000 2.62500000e+001 2.00000000e+001 5.15459769e-005 4.77858348e-005 3.41622319e-005 2.35799529e-005 
1.50000000e+000 2.90204669e+001 2.00000000e+001 2.35005178e-004 1.24167724e-004 7.33765129e-005 4.28658652e-005 
1.50000000e+000 3.15485737e+001 2.00000000e+001 7.86117761e-004 2.37240443e-004 1.21138934e-004 6.33883206e-005 
1.50000000e+000 3.38886043e+001 2.00000000e+001 3.58250797e-003 4.61792155e-004 1.94310039e-004 8.94266552e-005 
1.75000000e+000 8.75000000e+000 2.00000000e+001 5.61333597e-008 7.51348508e-007 1.36728888e-006 2.16475235e-006 
1.75000000e+000 1.51554446e+001 2.00000000e+001 4.22692207e-007 2.43483569e-006 3.27386365e-006 3.95342218e-006 
1.75000000e+000 1.95655948e+001 2.00000000e+001 2.11225022e-006 6.47570622e-006 6.99494490e-006 6.93151061e-006 
1.75000000e+000 2.31503240e+001 2.00000000e+001 9.29680218e-006 1.62176221e-005 1.44278708e-005 1.20472314e-005 
1.75000000e+000 2.62500000e+001 2.00000000e+001 4.65312688e-005 4.42834310e-005 3.19617805e-005 2.22353030e-005 
1.75000000e+000 2.90204669e+001 2.00000000e+001 2.64528453e-004 1.30210805e-004 7.55695592e-005 4.35052300e-005 
1.75000000e+000 3.15485737e+001 2.00000000e+001 1.14984967e-003 2.77010904e-004 1.33930109e-004 6.74169628e-005 
1.75000000e+000 3.38886043e+001 2.00000000e+001 7.96771100e-003 6.28857483e-004 2.35417284e-004 1.00237932e-004 
2.00000000e+000 8.75000000e+000 2.00000000e+001 2.20815475e-008 4.20533974e-007 8.67044436e-007 1.53339162e-006 
2.00000000e+000 1.51554446e+001 2.00000000e+001 2.16029470e-007 1.60583465e-006 2.35395393e-006 3.05995934e-006 
2.00000000e+000 1.95655948e+001 2.00000000e+001 1.32041423e-006 4.82053520e-006 5.52587979e-006 5.75747976e-006 
2.00000000e+000 2.31503240e+001 2.00000000e+001 6.96311859e-006 1.34485358e-005 1.23938801e-005 1.06618449e-005 
2.00000000e+000 2.62500000e+001 2.00000000e+001 4.22722326e-005 4.12521918e-005 3.00537661e-005 2.10744652e-005 
2.00000000e+000 2.90204669e+001 2.00000000e+001 3.01940363e-004 1.37111947e-004 7.80772951e-005 4.42942989e-005 
2.00000000e+000 3.15485737e+001 2.00000000e+001 1.74387470e-003 3.27610245e-004 1.49193329e-004 7.20432128e-005 
2.00000000e+000 3.38886043e+001 2.00000000e+001 1.90510156e-002 8.84408993e-004 2.90584159e-004 1.13498489e-004 
2.25000000e+000 8.75000000e+000 2.00000000e+001 8.83484485e-009 2.38049286e-007 5.54359800e-007 1.09192281e-006 
2.25000000e+000 1.51554446e+001 2.00000000e+001 1.11637697e-007 1.06823061e-006 1.70591952e-006 2.38470283e-006 
2.25000000e+000 1.95655948e+001 2.00000000e+001 8.32941414e-007 3.61356781e-006 4.39397741e-006 4.81190870e-006 
2.25000000e+000 2.31503240e+001 2.00000000e+001 5.25508472e-006 1.12157060e-005 1.07031253e-005 9.48430406e-006 
2.25000000e+000 2.62500000e+001 2.00000000e+001 3.85996410e-005 3.85874893e-005 2.83695074e-005 2.00517482e-005 
2.25000000e+000 2.90204669e+001 2.00000000e+001 3.49950809e-004 1.44943688e-004 8.08827614e-005 4.52048916e-005 
2.25000000e+000 3.15485737e+001 2.00000000e+001 2.73609184e-003 3.92391706e-004 1.67417903e-004 7.73184682e-005 
2.25000000e+000 3.38886043e+001 2.00000000e+001 4.83391318e-002 1.28341819e-003 3.65364914e-004 1.29791909e-004 
2.50000000e+000 8.75000000e+000 2.00000000e+001 3.58498834e-009 1.36100939e-007 3.57107795e-007 7.81435842e-007 
2.50000000e+000 1.51554446e+001 2.00000000e+001 5.82376923e-008 7.15643307e-007 1.24433431e-006 1.86929324e-006 
2.50000000e+000 1.95655948e+001 2.00000000e+001 5.29507962e-007 2.72438397e-006 3.51246627e-006 4.04189615e-006 
2.50000000e+000 2.31503240e+001 2.00000000e+001 3.99209778e-006 9.39745820e-006 9.28261295e-006 8.47149072e-006 
2.50000000e+000 2.62500000e+001 2.00000000e+001 3.53949054e-005 3.62176047e-005 2.68633065e-005 1.91368265e-005 
2.50000000e+000 2.90204669e+001 2.00000000e+001 4.12351481e-004 1.53821558e-004 8.39880902e-005 4.62214178e-005 
2.50000000e+000 3.15485737e+001 2.00000000e+001 4.42875006e-003 4.75916955e-004 1.89230866e-004 8.33166144e-005 
2.50000000e+000 3.38886043e+001 2.00000000e+001 1.28584636e-001 1.91932408e-003 4.67853660e-004 1.49885478e-004 
END