TITLE="DIR04_SCB_EB_E_WD210.dat"
VARIABLES= "Density" "Radius" "Height" "0.1053" "0.356" "0.6617" "1.3325" 
ZONE T="3D Data" I=11 J=4 K=3 F=POINT
0.00000000e+000 1.23743687e+001 0.00000000e+000 1.35564560e-004 9.24736052e-005 5.94019398e-005 3.75982637e-005 
0.00000000e+000 2.14330352e+001 0.00000000e+000 2.15376622e-004 1.45373539e-004 9.25151459e-005 5.74113892e-005 
0.00000000e+000 2.76699295e+001 0.00000000e+000 2.49691887e-004 1.68096588e-004 1.06903997e-004 6.62707736e-005 
0.00000000e+000 3.27395021e+001 0.00000000e+000 2.61361638e-004 1.75691282e-004 1.11994660e-004 6.97725724e-005 
2.50000000e-001 1.23743687e+001 0.00000000e+000 4.73395641e-005 5.00441794e-005 3.73240822e-005 2.68029775e-005 
2.50000000e-001 2.14330352e+001 0.00000000e+000 1.03195079e-004 9.26886232e-005 6.54352900e-005 4.44530153e-005 
2.50000000e-001 2.76699295e+001 0.00000000e+000 1.80554114e-004 1.33826029e-004 8.89345918e-005 5.75243997e-005 
2.50000000e-001 3.27395021e+001 0.00000000e+000 2.55641459e-004 1.66878927e-004 1.06462439e-004 6.67263883e-005 
5.00000000e-001 1.23743687e+001 0.00000000e+000 1.84843064e-005 2.81764664e-005 2.39956998e-005 1.93437231e-005 
5.00000000e-001 2.14330352e+001 0.00000000e+000 5.99584491e-005 6.40925334e-005 4.86479856e-005 3.54017476e-005 
5.00000000e-001 2.76699295e+001 0.00000000e+000 1.62687970e-004 1.18895056e-004 7.94865809e-005 5.21023980e-005 
5.00000000e-001 3.27395021e+001 0.00000000e+000 3.01170367e-004 1.74681238e-004 1.08040075e-004 6.64064030e-005 
7.50000000e-001 1.23743687e+001 0.00000000e+000 7.87768170e-006 1.64342095e-005 1.57573013e-005 1.41244058e-005 
7.50000000e-001 2.14330352e+001 0.00000000e+000 3.84646166e-005 4.68686984e-005 3.75722700e-005 2.88601680e-005 
7.50000000e-001 2.76699295e+001 0.00000000e+000 1.57705639e-004 1.11719578e-004 7.42051866e-005 4.86262390e-005 
7.50000000e-001 3.27395021e+001 0.00000000e+000 3.80437758e-004 1.91253070e-004 1.13608284e-004 6.77891276e-005 
1.00000000e+000 1.23743687e+001 0.00000000e+000 3.58595259e-006 9.88424869e-006 1.05487882e-005 1.04273098e-005 
1.00000000e+000 2.14330352e+001 0.00000000e+000 2.60658365e-005 3.55953325e-005 2.98550993e-005 2.39794639e-005 
1.00000000e+000 2.76699295e+001 0.00000000e+000 1.58105004e-004 1.08114855e-004 7.11093243e-005 4.63276052e-005 
1.00000000e+000 3.27395021e+001 0.00000000e+000 5.06380677e-004 2.14820140e-004 1.21979789e-004 7.03488803e-005 
1.25000000e+000 1.23743687e+001 0.00000000e+000 1.71465707e-006 6.10302318e-006 7.18526336e-006 7.77724953e-006 
1.25000000e+000 2.14330352e+001 0.00000000e+000 1.82871217e-005 2.77488087e-005 2.42302927e-005 2.02322529e-005 
1.25000000e+000 2.76699295e+001 0.00000000e+000 1.62044852e-004 1.06440703e-004 6.92583275e-005 4.47693611e-005 
1.25000000e+000 3.27395021e+001 0.00000000e+000 7.09508652e-004 2.45913093e-004 1.32828724e-004 7.38289215e-005 
1.50000000e+000 1.23743687e+001 0.00000000e+000 8.50948864e-007 3.85315864e-006 4.97020219e-006 5.85603949e-006 
1.50000000e+000 2.14330352e+001 0.00000000e+000 1.31491453e-005 2.20416681e-005 1.99812994e-005 1.72826808e-005 
1.50000000e+000 2.76699295e+001 0.00000000e+000 1.69108258e-004 1.05997360e-004 6.81839876e-005 4.36970704e-005 
1.50000000e+000 3.27395021e+001 0.00000000e+000 1.04747273e-003 2.86310514e-004 1.46260608e-004 7.81230190e-005 
1.75000000e+000 1.23743687e+001 0.00000000e+000 4.34613083e-007 2.47892052e-006 3.48517064e-006 4.44817210e-006 
1.75000000e+000 2.14330352e+001 0.00000000e+000 9.63439632e-006 1.77572893e-005 1.66810294e-005 1.49111783e-005 
1.75000000e+000 2.76699295e+001 0.00000000e+000 1.79415053e-004 1.06464175e-004 6.76417156e-005 4.29589628e-005 
1.75000000e+000 3.27395021e+001 0.00000000e+000 1.62931101e-003 3.38880793e-004 1.62646786e-004 8.32141521e-005 
2.00000000e+000 1.23743687e+001 0.00000000e+000 2.27069576e-007 1.62041855e-006 2.47338948e-006 3.40600189e-006 
2.00000000e+000 2.14330352e+001 0.00000000e+000 7.16684281e-006 1.44652855e-005 1.40617301e-005 1.29702439e-005 
2.00000000e+000 2.76699295e+001 0.00000000e+000 1.93401904e-004 1.07689615e-004 6.74979227e-005 4.24621708e-005 
2.00000000e+000 3.27395021e+001 0.00000000e+000 2.66515008e-003 4.07804399e-004 1.82574133e-004 8.91432137e-005 
2.25000000e+000 1.23743687e+001 0.00000000e+000 1.20830445e-007 1.07368007e-006 1.77401805e-006 2.62721868e-006 
2.25000000e+000 2.14330352e+001 0.00000000e+000 5.39879573e-006 1.18905908e-005 1.19475076e-005 1.13580437e-005 
2.25000000e+000 2.76699295e+001 0.00000000e+000 2.11779437e-004 1.09606793e-004 6.76771554e-005 4.21484101e-005 
2.25000000e+000 3.27395021e+001 0.00000000e+000 4.56749724e-003 4.99057596e-004 2.06851031e-004 9.59938171e-005 
2.50000000e+000 1.23743687e+001 0.00000000e+000 6.52754377e-008 7.19708863e-007 1.28433097e-006 2.04012916e-006 
2.50000000e+000 2.14330352e+001 0.00000000e+000 4.11064962e-006 9.84857882e-006 1.02179294e-005 1.00023682e-005 
2.50000000e+000 2.76699295e+001 0.00000000e+000 2.35558258e-004 1.12196943e-004 6.81362706e-005 4.19802244e-005 
2.50000000e+000 3.27395021e+001 0.00000000e+000 8.15938624e-003 6.21184035e-004 2.36547587e-004 1.03886074e-004 
0.00000000e+000 1.23743687e+001 1.00000000e+001 1.27121486e-004 8.74003120e-005 5.60888166e-005 3.53959277e-005 
0.00000000e+000 2.14330352e+001 1.00000000e+001 1.70635903e-004 1.15890193e-004 7.41247040e-005 4.64534031e-005 
0.00000000e+000 2.76699295e+001 1.00000000e+001 1.92325704e-004 1.30289868e-004 8.32092720e-005 5.20581832e-005 
0.00000000e+000 3.27395021e+001 1.00000000e+001 2.07232292e-004 1.40305351e-004 8.94680544e-005 5.58896986e-005 
2.50000000e-001 1.23743687e+001 1.00000000e+001 4.34181898e-005 4.66693616e-005 3.48781387e-005 2.50383643e-005 
2.50000000e-001 2.14330352e+001 1.00000000e+001 7.89953010e-005 7.22283683e-005 5.14863939e-005 3.54815862e-005 
2.50000000e-001 2.76699295e+001 1.00000000e+001 1.33216606e-004 1.00681248e-004 6.75759664e-005 4.43714306e-005 
2.50000000e-001 3.27395021e+001 1.00000000e+001 1.95093464e-004 1.29924351e-004 8.33105492e-005 5.26065848e-005 
5.00000000e-001 1.23743687e+001 1.00000000e+001 1.66893440e-005 2.59851248e-005 2.22190224e-005 1.79415769e-005 
5.00000000e-001 2.14330352e+001 1.00000000e+001 4.53345422e-005 4.93009310e-005 3.78118715e-005 2.79612219e-005 
5.00000000e-001 2.76699295e+001 1.00000000e+001 1.18525807e-004 8.81440338e-005 5.95352648e-005 3.96806089e-005 
5.00000000e-001 3.27395021e+001 1.00000000e+001 2.26093157e-004 1.34086447e-004 8.34615359e-005 5.17764283e-005 
7.50000000e-001 1.23743687e+001 1.00000000e+001 7.03593299e-006 1.50190449e-005 1.44750424e-005 1.30150951e-005 
7.50000000e-001 2.14330352e+001 1.00000000e+001 2.89579662e-005 3.58081745e-005 2.89750573e-005 2.26152242e-005 
7.50000000e-001 2.76699295e+001 1.00000000e+001 1.14371299e-004 8.22353648e-005 5.51207626e-005 3.67154523e-005 
7.50000000e-001 3.27395021e+001 1.00000000e+001 2.83287356e-004 1.45477974e-004 8.70059903e-005 5.24371724e-005 
1.00000000e+000 1.23743687e+001 1.00000000e+001 3.17776098e-006 8.96702318e-006 9.62414111e-006 9.55116022e-006 
1.00000000e+000 2.14330352e+001 1.00000000e+001 1.95836688e-005 2.71015514e-005 2.29111773e-005 1.86814488e-005 
1.00000000e+000 2.76699295e+001 1.00000000e+001 1.14401230e-004 7.92826633e-005 5.25637271e-005 3.47776785e-005 
1.00000000e+000 3.27395021e+001 1.00000000e+001 3.76907855e-004 1.62383569e-004 9.28317984e-005 5.40966981e-005 
1.25000000e+000 1.23743687e+001 1.00000000e+001 1.51007411e-006 5.50374881e-006 6.51687665e-006 7.08519400e-006 
1.25000000e+000 2.14330352e+001 1.00000000e+001 1.37187487e-005 2.10891294e-005 1.85375980e-005 1.56947649e-005 
1.25000000e+000 2.76699295e+001 1.00000000e+001 1.17089004e-004 7.78812641e-005 5.10404031e-005 3.34754142e-005 
1.25000000e+000 3.27395021e+001 1.00000000e+001 5.32604704e-004 1.85152127e-004 1.00614818e-004 5.65135751e-005 
1.50000000e+000 1.23743687e+001 1.00000000e+001 7.45356269e-007 3.45770467e-006 4.48497054e-006 5.30869300e-006 
1.50000000e+000 2.14330352e+001 1.00000000e+001 9.84999091e-006 1.67338987e-005 1.52564491e-005 1.33641799e-005 
1.50000000e+000 2.76699295e+001 1.00000000e+001 1.22079079e-004 7.74434822e-005 5.01479850e-005 3.25835978e-005 
1.50000000e+000 3.27395021e+001 1.00000000e+001 8.00783103e-004 2.15224360e-004 1.10416972e-004 5.95847408e-005 
1.75000000e+000 1.23743687e+001 1.00000000e+001 3.78721208e-007 2.21519895e-006 3.13102169e-006 4.01437173e-006 
1.75000000e+000 2.14330352e+001 1.00000000e+001 7.20613344e-006 1.34711286e-005 1.27190538e-005 1.15026948e-005 
1.75000000e+000 2.76699295e+001 1.00000000e+001 1.29448686e-004 7.77032805e-005 4.96792019e-005 3.19696726e-005 
1.75000000e+000 3.27395021e+001 1.00000000e+001 1.28089200e-003 2.54995934e-004 1.22533766e-004 6.32879462e-005 
2.00000000e+000 1.23743687e+001 1.00000000e+001 1.96846367e-007 1.44270539e-006 2.21340381e-006 3.06129572e-006 
2.00000000e+000 2.14330352e+001 1.00000000e+001 5.35190445e-006 1.09667020e-005 1.07107612e-005 9.98669885e-006 
2.00000000e+000 2.76699295e+001 1.00000000e+001 1.39531222e-004 7.85352184e-005 4.95221363e-005 3.15534636e-005 
2.00000000e+000 3.27395021e+001 1.00000000e+001 2.17356980e-003 3.08035132e-004 1.37449075e-004 6.76526627e-005 
2.25000000e+000 1.23743687e+001 1.00000000e+001 1.04189939e-007 9.52731613e-007 1.58201766e-006 2.35250646e-006 
2.25000000e+000 2.14330352e+001 1.00000000e+001 4.02484170e-006 9.00907833e-006 9.09256604e-006 8.73209540e-006 
2.25000000e+000 2.76699295e+001 1.00000000e+001 1.52885352e-004 7.98830976e-005 4.96140081e-005 3.12851619e-005 
2.25000000e+000 3.27395021e+001 1.00000000e+001 3.89246190e-003 3.79554443e-004 1.55842087e-004 7.27461200e-005 
2.50000000e+000 1.23743687e+001 1.00000000e+001 5.59725788e-008 6.36629065e-007 1.14169991e-006 1.82051888e-006 
2.50000000e+000 2.14330352e+001 1.00000000e+001 3.05922144e-006 7.45704366e-006 7.77030280e-006 7.68001845e-006 
2.50000000e+000 2.76699295e+001 1.00000000e+001 1.70320503e-004 8.17296720e-005 4.99189630e-005 3.11330245e-005 
2.50000000e+000 3.27395021e+001 1.00000000e+001 7.30652010e-003 4.77176647e-004 1.78626421e-004 7.86677082e-005 
0.00000000e+000 1.23743687e+001 2.00000000e+001 1.29115298e-004 8.85247489e-005 5.60779657e-005 3.46057065e-005 
0.00000000e+000 2.14330352e+001 2.00000000e+001 1.51818301e-004 1.03041197e-004 6.51986906e-005 4.02315533e-005 
0.00000000e+000 2.76699295e+001 2.00000000e+001 1.79340993e-004 1.21084170e-004 7.64609711e-005 4.70012954e-005 
0.00000000e+000 3.27395021e+001 2.00000000e+001 2.10905780e-004 1.41935713e-004 8.94708827e-005 5.48003147e-005 
2.50000000e-001 1.23743687e+001 2.00000000e+001 4.24449388e-005 4.61719643e-005 3.42360573e-005 2.41370800e-005 
2.50000000e-001 2.14330352e+001 2.00000000e+001 7.12073382e-005 6.44779302e-005 4.53143153e-005 3.06559056e-005 
2.50000000e-001 2.76699295e+001 2.00000000e+001 1.30714381e-004 9.64030719e-005 6.33892330e-005 4.05381232e-005 
2.50000000e-001 3.27395021e+001 2.00000000e+001 2.15766671e-004 1.38065341e-004 8.63880372e-005 5.28427020e-005 
5.00000000e-001 1.23743687e+001 2.00000000e+001 1.58056973e-005 2.51760294e-005 2.14458875e-005 1.70680351e-005 
5.00000000e-001 2.14330352e+001 2.00000000e+001 4.14882673e-005 4.43955569e-005 3.34314343e-005 2.41663768e-005 
5.00000000e-001 2.76699295e+001 2.00000000e+001 1.19769021e-004 8.64461667e-005 5.69084354e-005 3.66980111e-005 
5.00000000e-001 3.27395021e+001 2.00000000e+001 2.67739484e-004 1.48482627e-004 8.93520097e-005 5.32013639e-005 
7.50000000e-001 1.23743687e+001 2.00000000e+001 6.47526730e-006 1.42780471e-005 1.37561661e-005 1.22276529e-005 
7.50000000e-001 2.14330352e+001 2.00000000e+001 2.66665658e-005 3.25021720e-005 2.57615577e-005 1.95816556e-005 
7.50000000e-001 2.76699295e+001 2.00000000e+001 1.17638632e-004 8.20131029e-005 5.34805458e-005 3.43331262e-005 
7.50000000e-001 3.27395021e+001 2.00000000e+001 3.61157983e-004 1.67336751e-004 9.58841409e-005 5.50277523e-005 
1.00000000e+000 1.23743687e+001 2.00000000e+001 2.84402596e-006 8.37543347e-006 9.01466786e-006 8.86778993e-006 
1.00000000e+000 2.14330352e+001 2.00000000e+001 1.80169643e-005 2.47277577e-005 2.04701229e-005 1.62140067e-005 
1.00000000e+000 2.76699295e+001 2.00000000e+001 1.19359260e-004 8.00270936e-005 5.15869288e-005 3.28292953e-005 
1.00000000e+000 3.27395021e+001 2.00000000e+001 5.23768276e-004 1.94183092e-004 1.05219236e-004 5.79200215e-005 
1.25000000e+000 1.23743687e+001 2.00000000e+001 1.31368350e-006 5.05451665e-006 6.02105657e-006 6.50464453e-006 
1.25000000e+000 2.14330352e+001 2.00000000e+001 1.25531218e-005 1.92872963e-005 1.66208778e-005 1.36531637e-005 
1.25000000e+000 2.76699295e+001 2.00000000e+001 1.23888153e-004 7.93646016e-005 5.05455397e-005 3.18508377e-005 
1.25000000e+000 3.27395021e+001 2.00000000e+001 8.18317299e-004 2.30870015e-004 1.17363993e-004 6.17139569e-005 
1.50000000e+000 1.23743687e+001 2.00000000e+001 6.29729516e-007 3.12335149e-006 4.08949410e-006 4.82146314e-006 
1.50000000e+000 2.14330352e+001 2.00000000e+001 8.94013230e-006 1.53038876e-005 1.37065331e-005 1.16475158e-005 
1.50000000e+000 2.76699295e+001 2.00000000e+001 1.31147361e-004 7.95764344e-005 5.00339877e-005 3.12098134e-005 
1.50000000e+000 3.27395021e+001 2.00000000e+001 1.37983510e-003 2.80956310e-004 1.32755945e-004 6.63796473e-005 
1.75000000e+000 1.23743687e+001 2.00000000e+001 3.10452175e-007 1.96827285e-006 2.81849985e-006 3.60823454e-006 
1.75000000e+000 2.14330352e+001 2.00000000e+001 6.47657072e-006 1.22972554e-005 1.14341304e-005 1.00379691e-005 
1.75000000e+000 2.76699295e+001 2.00000000e+001 1.41476516e-004 8.04714825e-005 4.98917284e-005 3.07981829e-005 
1.75000000e+000 3.27395021e+001 2.00000000e+001 2.50779749e-003 3.50059843e-004 1.52167181e-004 7.19715076e-005 
2.00000000e+000 1.23743687e+001 2.00000000e+001 1.56425126e-007 1.26078585e-006 1.96739889e-006 2.72394323e-006 
2.00000000e+000 2.14330352e+001 2.00000000e+001 4.75784466e-006 9.97897222e-006 9.62350425e-006 8.72060253e-006 
2.00000000e+000 2.76699295e+001 2.00000000e+001 1.55531160e-004 8.19711011e-005 5.00352041e-005 3.05520966e-005 
2.00000000e+000 3.27395021e+001 2.00000000e+001 4.88804707e-003 4.46806753e-004 1.76721953e-004 7.86059140e-005 
2.25000000e+000 1.23743687e+001 2.00000000e+001 8.02007915e-008 8.18716984e-007 1.38857985e-006 2.07269980e-006 
2.25000000e+000 2.14330352e+001 2.00000000e+001 3.53665448e-006 8.16303772e-006 8.15728439e-006 7.62523215e-006 
2.25000000e+000 2.76699295e+001 2.00000000e+001 1.74305813e-004 8.40540024e-005 5.04199804e-005 3.04327847e-005 
2.25000000e+000 3.27395021e+001 2.00000000e+001 1.01352358e-002 5.84486938e-004 2.07984684e-004 8.64538538e-005 
2.50000000e+000 1.23743687e+001 2.00000000e+001 4.17084143e-008 5.37819623e-007 9.89536460e-007 1.58848502e-006 
2.50000000e+000 2.14330352e+001 2.00000000e+001 2.65569799e-006 6.72304495e-006 6.95512644e-006 6.70287691e-006 
2.50000000e+000 2.76699295e+001 2.00000000e+001 1.99221919e-004 8.67338908e-005 5.10231032e-005 3.04161388e-005 
2.50000000e+000 3.27395021e+001 2.00000000e+001 2.21387247e-002 7.83782962e-004 2.48111875e-004 9.57425489e-005 
END