TITLE="E_Sample.dat"					
VARIABLES="x(cm)" "y(cm)" "z(cm)" "0.1053" "0.356" "0.6617" "0.7889" "1.1732" "1.3325" "1.408" "2" "3"
ZONE T="3D Data" I=1 J=1 K=1 F=POINT
0 0 0	3.909E-04	2.631E-04	1.672E-04	1.475E-04	1.124E-04	1.030E-04	9.916E-05	7.578E-05	5.378E-05
End
