TITLE="E_Sample.dat"					
VARIABLES="x(cm)" "y(cm)" "z(cm)" "0.32" "0.5639" "0.6027" "0.6617" "0.7242" "0.7653" "0.8108" "0.8348" "1.1732" "1.3325"
ZONE T="3D Data" I=1 J=1 K=1 F=POINT
0 0 0 3.88284E-04 2.46490E-04 2.33987E-04 2.17891E-04 2.03391E-04 1.95092E-04 1.86907E-04 1.82859E-04 1.42623E-04 1.30078E-04
End
